Variables = LogStrainRate, Temperature, P
Zone I = 51 J = 21		
-3	573	0.509642
-2.9	573	0.505182
-2.8	573	0.493649
-2.7	573	0.476826
-2.6	573	0.455983
-2.5	573	0.432041
-2.4	573	0.405687
-2.3	573	0.377458
-2.2	573	0.347797
-2.1	573	0.317091
-2	573	0.285699
-1.9	573	0.253973
-1.8	573	0.222262
-1.7	573	0.190921
-1.6	573	0.160309
-1.5	573	0.130777
-1.4	573	0.102668
-1.3	573	0.076299
-1.2	573	0.051947
-1.1	573	0.029846
-1	573	0.010165
-0.9	573	-0.006989
-0.8	573	-0.02158
-0.7	573	-0.033644
-0.6	573	-0.043277
-0.5	573	-0.050636
-0.4	573	-0.055924
-0.3	573	-0.059378
-0.2	573	-0.061256
-0.1	573	-0.061829
0	573	-0.061362
0.1	573	-0.060114
0.2	573	-0.058321
0.3	573	-0.056198
0.4	573	-0.053931
0.5	573	-0.051675
0.6	573	-0.049557
0.7	573	-0.047673
0.8	573	-0.046088
0.9	573	-0.044846
1	573	-0.043962
1.1	573	-0.043433
1.2	573	-0.043238
1.3	573	-0.043339
1.4	573	-0.04369
1.5	573	-0.044233
1.6	573	-0.044906
1.7	573	-0.045644
1.8	573	-0.046384
1.9	573	-0.047065
2	573	-0.047629
		
-3	583	0.544138
-2.9	583	0.539644
-2.8	583	0.528015
-2.7	583	0.511076
-2.6	583	0.490111
-2.5	583	0.466046
-2.4	583	0.439565
-2.3	583	0.411198
-2.2	583	0.381378
-2.1	583	0.35048
-2	583	0.318853
-1.9	583	0.286834
-1.8	583	0.254763
-1.7	583	0.222981
-1.6	583	0.191834
-1.5	583	0.161665
-1.4	583	0.132804
-1.3	583	0.10556
-1.2	583	0.080208
-1.1	583	0.056975
-1	583	0.036032
-0.9	583	0.01749
-0.8	583	0.001389
-0.7	583	-0.012294
-0.6	583	-0.023644
-0.5	583	-0.032801
-0.4	583	-0.039949
-0.3	583	-0.045303
-0.2	583	-0.049099
-0.1	583	-0.051583
0	583	-0.052995
0.1	583	-0.053567
0.2	583	-0.053508
0.3	583	-0.053004
0.4	583	-0.052215
0.5	583	-0.051269
0.6	583	-0.050266
0.7	583	-0.049278
0.8	583	-0.04835
0.9	583	-0.047505
1	583	-0.046748
1.1	583	-0.046067
1.2	583	-0.045439
1.3	583	-0.044834
1.4	583	-0.044217
1.5	583	-0.043553
1.6	583	-0.042809
1.7	583	-0.041955
1.8	583	-0.040969
1.9	583	-0.039834
2	583	-0.038541
		
-3	593	0.578111
-2.9	593	0.573584
-2.8	593	0.561868
-2.7	593	0.544822
-2.6	593	0.523745
-2.5	593	0.499561
-2.4	593	0.47295
-2.3	593	0.444431
-2.2	593	0.414426
-2.1	593	0.383297
-2	593	0.35138
-1.9	593	0.318999
-1.8	593	0.286479
-1.7	593	0.25415
-1.6	593	0.222346
-1.5	593	0.191399
-1.4	593	0.161634
-1.3	593	0.133352
-1.2	593	0.106826
-1.1	593	0.082287
-1	593	0.059913
-0.9	593	0.039823
-0.8	593	0.022075
-0.7	593	0.006668
-0.6	593	-0.006461
-0.5	593	-0.017422
-0.4	593	-0.026367
-0.3	593	-0.033478
-0.2	593	-0.038956
-0.1	593	-0.043011
0	593	-0.045849
0.1	593	-0.047667
0.2	593	-0.048644
0.3	593	-0.048942
0.4	593	-0.048697
0.5	593	-0.048024
0.6	593	-0.047012
0.7	593	-0.045734
0.8	593	-0.044243
0.9	593	-0.042578
1	593	-0.040766
1.1	593	-0.038828
1.2	593	-0.036779
1.3	593	-0.03463
1.4	593	-0.032392
1.5	593	-0.030079
1.6	593	-0.027702
1.7	593	-0.025278
1.8	593	-0.022823
1.9	593	-0.020355
2	593	-0.017895
		
-3	603	0.611109
-2.9	603	0.606548
-2.8	603	0.594744
-2.7	603	0.577587
-2.6	603	0.556385
-2.5	603	0.532064
-2.4	603	0.505292
-2.3	603	0.476579
-2.2	603	0.446333
-2.1	603	0.414904
-2	603	0.382614
-1.9	603	0.349775
-1.8	603	0.316702
-1.7	603	0.283713
-1.6	603	0.251136
-1.5	603	0.219298
-1.4	603	0.188523
-1.3	603	0.159117
-1.2	603	0.131361
-1.1	603	0.105499
-1	603	0.081728
-0.9	603	0.060194
-0.8	603	0.040983
-0.7	603	0.024128
-0.6	603	0.009602
-0.5	603	-0.002665
-0.4	603	-0.012789
-0.3	603	-0.020915
-0.2	603	-0.027213
-0.1	603	-0.031863
0	603	-0.035052
0.1	603	-0.036964
0.2	603	-0.037776
0.3	603	-0.037654
0.4	603	-0.03675
0.5	603	-0.0352
0.6	603	-0.033128
0.7	603	-0.030643
0.8	603	-0.027839
0.9	603	-0.024802
1	603	-0.021605
1.1	603	-0.018313
1.2	603	-0.014981
1.3	603	-0.01166
1.4	603	-0.008391
1.5	603	-0.005211
1.6	603	-0.002152
1.7	603	0.000763
1.8	603	0.003511
1.9	603	0.006077
2	603	0.008449
		
-3	613	0.64259
-2.9	613	0.637989
-2.8	613	0.626086
-2.7	613	0.608801
-2.6	613	0.587452
-2.5	613	0.562959
-2.4	613	0.535987
-2.3	613	0.507032
-2.2	613	0.476492
-2.1	613	0.444709
-2	613	0.411994
-1.9	613	0.378656
-1.8	613	0.345002
-1.7	613	0.311354
-1.6	613	0.27804
-1.5	613	0.245398
-1.4	613	0.213762
-1.3	613	0.183455
-1.2	613	0.154783
-1.1	613	0.128014
-1	613	0.103376
-0.9	613	0.081046
-0.8	613	0.061144
-0.7	613	0.043733
-0.6	613	0.028815
-0.5	613	0.016341
-0.4	613	0.006211
-0.3	613	-0.001715
-0.2	613	-0.007605
-0.1	613	-0.011655
0	613	-0.01407
0.1	613	-0.015064
0.2	613	-0.014849
0.3	613	-0.013629
0.4	613	-0.011598
0.5	613	-0.008937
0.6	613	-0.005808
0.7	613	-0.002358
0.8	613	0.001285
0.9	613	0.005012
1	613	0.008728
1.1	613	0.012357
1.2	613	0.015837
1.3	613	0.019119
1.4	613	0.022166
1.5	613	0.024952
1.6	613	0.02746
1.7	613	0.029681
1.8	613	0.031612
1.9	613	0.033258
2	613	0.034624
		
-3	623	0.672008
-2.9	623	0.667363
-2.8	623	0.655357
-2.7	623	0.637941
-2.6	623	0.616443
-2.5	623	0.591784
-2.4	623	0.564625
-2.3	623	0.535459
-2.2	623	0.504681
-2.1	623	0.472631
-2	623	0.439625
-1.9	623	0.405974
-1.8	623	0.371997
-1.7	623	0.338026
-1.6	623	0.304408
-1.5	623	0.271497
-1.4	623	0.239649
-1.3	623	0.209209
-1.2	623	0.180502
-1.1	623	0.153818
-1	623	0.1294
-0.9	623	0.107434
-0.8	623	0.088045
-0.7	623	0.071289
-0.6	623	0.057159
-0.5	623	0.045583
-0.4	623	0.036435
-0.3	623	0.029542
-0.2	623	0.024697
-0.1	623	0.021668
0	623	0.020208
0.1	623	0.02007
0.2	623	0.02101
0.3	623	0.022797
0.4	623	0.025217
0.5	623	0.028078
0.6	623	0.031209
0.7	623	0.034466
0.8	623	0.037728
0.9	623	0.040893
1	623	0.043886
1.1	623	0.046645
1.2	623	0.049127
1.3	623	0.051305
1.4	623	0.053163
1.5	623	0.054692
1.6	623	0.055896
1.7	623	0.056783
1.8	623	0.057365
1.9	623	0.057659
2	623	0.057684
		
-3	633	0.699103
-2.9	633	0.694429
-2.8	633	0.682367
-2.7	633	0.6649
-2.6	633	0.643369
-2.5	633	0.618703
-2.4	633	0.591567
-2.3	633	0.562461
-2.2	633	0.531786
-2.1	633	0.499893
-2	633	0.467109
-1.9	633	0.433758
-1.8	633	0.400173
-1.7	633	0.3667
-1.6	633	0.333696
-1.5	633	0.301524
-1.4	633	0.270541
-1.3	633	0.241091
-1.2	633	0.213487
-1.1	633	0.188002
-1	633	0.164854
-0.9	633	0.144197
-0.8	633	0.12612
-0.7	633	0.110639
-0.6	633	0.097704
-0.5	633	0.087205
-0.4	633	0.078979
-0.3	633	0.072822
-0.2	633	0.068503
-0.1	633	0.065773
0	633	0.064379
0.1	633	0.064071
0.2	633	0.064613
0.3	633	0.065786
0.4	633	0.067393
0.5	633	0.069264
0.6	633	0.071253
0.7	633	0.073238
0.8	633	0.075122
0.9	633	0.076831
1	633	0.078308
1.1	633	0.079515
1.2	633	0.080427
1.3	633	0.081032
1.4	633	0.081327
1.5	633	0.081318
1.6	633	0.081016
1.7	633	0.080436
1.8	633	0.079597
1.9	633	0.078519
2	633	0.077224
		
-3	643	0.724479
-2.9	643	0.719836
-2.8	643	0.707885
-2.7	643	0.690629
-2.6	643	0.669417
-2.5	643	0.645185
-2.4	643	0.618603
-2.3	643	0.590177
-2.2	643	0.560314
-2.1	643	0.529369
-2	643	0.497672
-1.9	643	0.465547
-1.8	643	0.433321
-1.7	643	0.401326
-1.6	643	0.369903
-1.5	643	0.339386
-1.4	643	0.310102
-1.3	643	0.282356
-1.2	643	0.256419
-1.1	643	0.232516
-1	643	0.210821
-0.9	643	0.191446
-0.8	643	0.17444
-0.7	643	0.159789
-0.6	643	0.147418
-0.5	643	0.137205
-0.4	643	0.128982
-0.3	643	0.122549
-0.2	643	0.117689
-0.1	643	0.114171
0	643	0.111766
0.1	643	0.110253
0.2	643	0.109426
0.3	643	0.109095
0.4	643	0.109096
0.5	643	0.109283
0.6	643	0.109538
0.7	643	0.109762
0.8	643	0.109879
0.9	643	0.10983
1	643	0.109574
1.1	643	0.109083
1.2	643	0.108342
1.3	643	0.107345
1.4	643	0.106093
1.5	643	0.104595
1.6	643	0.102863
1.7	643	0.100913
1.8	643	0.098761
1.9	643	0.096426
2	643	0.093927
		
-3	653	0.750073
-2.9	653	0.74558
-2.8	653	0.734043
-2.7	653	0.71744
-2.6	653	0.6971
-2.5	653	0.673941
-2.4	653	0.648615
-2.3	653	0.621611
-2.2	653	0.593319
-2.1	653	0.564071
-2	653	0.534174
-1.9	653	0.503923
-1.8	653	0.47361
-1.7	653	0.443532
-1.6	653	0.413987
-1.5	653	0.385268
-1.4	653	0.357657
-1.3	653	0.331419
-1.2	653	0.306784
-1.1	653	0.283947
-1	653	0.263054
-0.9	653	0.244197
-0.8	653	0.227418
-0.7	653	0.212699
-0.6	653	0.199977
-0.5	653	0.189141
-0.4	653	0.180045
-0.3	653	0.172516
-0.2	653	0.166366
-0.1	653	0.161396
0	653	0.157407
0.1	653	0.15421
0.2	653	0.151626
0.3	653	0.149493
0.4	653	0.147669
0.5	653	0.146029
0.6	653	0.14447
0.7	653	0.142909
0.8	653	0.14128
0.9	653	0.139531
1	653	0.137628
1.1	653	0.135546
1.2	653	0.133271
1.3	653	0.130799
1.4	653	0.12813
1.5	653	0.125269
1.6	653	0.122227
1.7	653	0.119015
1.8	653	0.115646
1.9	653	0.112133
2	653	0.108491
		
-3	663	0.778387
-2.9	663	0.774165
-2.8	663	0.763324
-2.7	663	0.747751
-2.6	663	0.728706
-2.5	663	0.707045
-2.4	663	0.68337
-2.3	663	0.658126
-2.2	663	0.63166
-2.1	663	0.604267
-2	663	0.576214
-1.9	663	0.547759
-1.8	663	0.519159
-1.7	663	0.490676
-1.6	663	0.462576
-1.5	663	0.435122
-1.4	663	0.408571
-1.3	663	0.383165
-1.2	663	0.359119
-1.1	663	0.336618
-1	663	0.315802
-0.9	663	0.296768
-0.8	663	0.279564
-0.7	663	0.264186
-0.6	663	0.250589
-0.5	663	0.238685
-0.4	663	0.228352
-0.3	663	0.219443
-0.2	663	0.211795
-0.1	663	0.205236
0	663	0.199592
0.1	663	0.194695
0.2	663	0.190387
0.3	663	0.186524
0.4	663	0.182976
0.5	663	0.179634
0.6	663	0.176403
0.7	663	0.173205
0.8	663	0.16998
0.9	663	0.166681
1	663	0.163273
1.1	663	0.159732
1.2	663	0.156042
1.3	663	0.152196
1.4	663	0.148191
1.5	663	0.144029
1.6	663	0.139714
1.7	663	0.135253
1.8	663	0.130652
1.9	663	0.125918
2	663	0.121058
		
-3	673	0.810193
-2.9	673	0.80627
-2.8	673	0.796175
-2.7	673	0.781665
-2.6	673	0.763898
-2.5	673	0.743655
-2.4	673	0.721476
-2.3	673	0.697756
-2.2	673	0.672804
-2.1	673	0.646879
-2	673	0.620221
-1.9	673	0.593062
-1.8	673	0.565639
-1.7	673	0.538193
-1.6	673	0.510973
-1.5	673	0.484229
-1.4	673	0.458206
-1.3	673	0.433138
-1.2	673	0.409234
-1.1	673	0.386676
-1	673	0.365608
-0.9	673	0.346131
-0.8	673	0.328301
-0.7	673	0.312129
-0.6	673	0.297583
-0.5	673	0.284591
-0.4	673	0.27305
-0.3	673	0.262833
-0.2	673	0.253794
-0.1	673	0.24578
0	673	0.238635
0.1	673	0.232205
0.2	673	0.226347
0.3	673	0.220927
0.4	673	0.215827
0.5	673	0.210943
0.6	673	0.206187
0.7	673	0.201485
0.8	673	0.19678
0.9	673	0.192022
1	673	0.187179
1.1	673	0.182222
1.2	673	0.177133
1.3	673	0.171901
1.4	673	0.166518
1.5	673	0.160978
1.6	673	0.155279
1.7	673	0.14942
1.8	673	0.143399
1.9	673	0.137212
2	673	0.130856
		
-3	683	0.843429
-2.9	683	0.839738
-2.8	683	0.830233
-2.7	683	0.816552
-2.6	683	0.799769
-2.5	683	0.780597
-2.4	683	0.759531
-2.3	683	0.736929
-2.2	683	0.713071
-2.1	683	0.688195
-2	683	0.662523
-1.9	683	0.636273
-1.8	683	0.609667
-1.7	683	0.582936
-1.6	683	0.556317
-1.5	683	0.530049
-1.4	683	0.504369
-1.3	683	0.479501
-1.2	683	0.455653
-1.1	683	0.432999
-1	683	0.411684
-0.9	683	0.391811
-0.8	683	0.373439
-0.7	683	0.356587
-0.6	683	0.34123
-0.5	683	0.327309
-0.4	683	0.314733
-0.3	683	0.303387
-0.2	683	0.293141
-0.1	683	0.283852
0	683	0.275378
0.1	683	0.267577
0.2	683	0.260315
0.3	683	0.253466
0.4	683	0.246921
0.5	683	0.240578
0.6	683	0.234355
0.7	683	0.228179
0.8	683	0.221992
0.9	683	0.215744
1	683	0.209397
1.1	683	0.20292
1.2	683	0.19629
1.3	683	0.189487
1.4	683	0.182494
1.5	683	0.175299
1.6	683	0.167886
1.7	683	0.160245
1.8	683	0.152358
1.9	683	0.144211
2	683	0.135784
		
-3	693	0.875094
-2.9	693	0.871562
-2.8	693	0.86249
-2.7	693	0.849433
-2.6	693	0.8334
-2.5	693	0.81506
-2.4	693	0.794869
-2.3	693	0.773161
-2.2	693	0.750194
-2.1	693	0.726192
-2	693	0.701361
-1.9	693	0.675905
-1.8	693	0.650037
-1.7	693	0.623973
-1.6	693	0.597939
-1.5	693	0.572165
-1.4	693	0.546874
-1.3	693	0.522283
-1.2	693	0.498588
-1.1	693	0.47596
-1	693	0.454536
-0.9	693	0.434417
-0.8	693	0.415665
-0.7	693	0.398298
-0.6	693	0.382299
-0.5	693	0.367614
-0.4	693	0.354161
-0.3	693	0.341835
-0.2	693	0.330514
-0.1	693	0.320067
0	693	0.31036
0.1	693	0.30126
0.2	693	0.292639
0.3	693	0.284379
0.4	693	0.276373
0.5	693	0.268523
0.6	693	0.260747
0.7	693	0.252971
0.8	693	0.245132
0.9	693	0.237178
1	693	0.229064
1.1	693	0.220751
1.2	693	0.212205
1.3	693	0.203397
1.4	693	0.194296
1.5	693	0.184878
1.6	693	0.175113
1.7	693	0.164975
1.8	693	0.154434
1.9	693	0.143459
2	693	0.132019
		
-3	703	0.903385
-2.9	703	0.899983
-2.8	703	0.891295
-2.7	703	0.878804
-2.6	703	0.863466
-2.5	703	0.845908
-2.4	703	0.826557
-2.3	703	0.805722
-2.2	703	0.783645
-2.1	703	0.76053
-2	703	0.736572
-1.9	703	0.711961
-1.8	703	0.686896
-1.7	703	0.661581
-1.6	703	0.636229
-1.5	703	0.611055
-1.4	703	0.586271
-1.3	703	0.562082
-1.2	703	0.538672
-1.1	703	0.516203
-1	703	0.494805
-0.9	703	0.474575
-0.8	703	0.455569
-0.7	703	0.437808
-0.6	703	0.421275
-0.5	703	0.40592
-0.4	703	0.391666
-0.3	703	0.378413
-0.2	703	0.366047
-0.1	703	0.354444
0	703	0.343474
0.1	703	0.333011
0.2	703	0.32293
0.3	703	0.313116
0.4	703	0.303461
0.5	703	0.293867
0.6	703	0.284248
0.7	703	0.274525
0.8	703	0.264629
0.9	703	0.254498
1	703	0.244077
1.1	703	0.233316
1.2	703	0.22217
1.3	703	0.210595
1.4	703	0.198552
1.5	703	0.186003
1.6	703	0.172911
1.7	703	0.159244
1.8	703	0.144971
1.9	703	0.130068
2	703	0.114517
		
-3	713	0.927911
-2.9	713	0.924648
-2.8	713	0.916373
-2.7	713	0.904488
-2.6	713	0.889894
-2.5	713	0.873175
-2.4	713	0.854727
-2.3	713	0.834836
-2.2	713	0.813722
-2.1	713	0.791576
-2	713	0.768576
-1.9	713	0.744899
-1.8	713	0.72073
-1.7	713	0.696259
-1.6	713	0.671685
-1.5	713	0.647209
-1.4	713	0.623028
-1.3	713	0.599333
-1.2	713	0.576296
-1.1	713	0.554067
-1	713	0.532767
-0.9	713	0.512483
-0.8	713	0.493268
-0.7	713	0.475138
-0.6	713	0.458075
-0.5	713	0.442028
-0.4	713	0.426922
-0.3	713	0.41266
-0.2	713	0.399129
-0.1	713	0.386209
0	713	0.373771
0.1	713	0.361689
0.2	713	0.349839
0.3	713	0.338103
0.4	713	0.32637
0.5	713	0.314537
0.6	713	0.302512
0.7	713	0.290207
0.8	713	0.277547
0.9	713	0.264462
1	713	0.250891
1.1	713	0.236779
1.2	713	0.222078
1.3	713	0.206751
1.4	713	0.190767
1.5	713	0.174108
1.6	713	0.156768
1.7	713	0.138756
1.8	713	0.120101
1.9	713	0.100853
2	713	0.081089
		
-3	723	0.948933
-2.9	723	0.945835
-2.8	723	0.938024
-2.7	723	0.926814
-2.6	723	0.913036
-2.5	723	0.897232
-2.4	723	0.879763
-2.3	723	0.86089
-2.2	723	0.840813
-2.1	723	0.819705
-2	723	0.797731
-1.9	723	0.775052
-1.8	723	0.751838
-1.7	723	0.728266
-1.6	723	0.704517
-1.5	723	0.680777
-1.4	723	0.657229
-1.3	723	0.634046
-1.2	723	0.611385
-1.1	723	0.589383
-1	723	0.568148
-0.9	723	0.547756
-0.8	723	0.52825
-0.7	723	0.509638
-0.6	723	0.491897
-0.5	723	0.474972
-0.4	723	0.458786
-0.3	723	0.443237
-0.2	723	0.428214
-0.1	723	0.413591
0	723	0.399241
0.1	723	0.385033
0.2	723	0.370843
0.3	723	0.35655
0.4	723	0.342041
0.5	723	0.327213
0.6	723	0.311974
0.7	723	0.296243
0.8	723	0.279955
0.9	723	0.263055
1	723	0.245509
1.1	723	0.227298
1.2	723	0.208424
1.3	723	0.188914
1.4	723	0.168817
1.5	723	0.148215
1.6	723	0.127216
1.7	723	0.105965
1.8	723	0.084634
1.9	723	0.063428
2	723	0.042578
		
-3	733	0.966779
-2.9	733	0.963867
-2.8	733	0.956569
-2.7	733	0.946088
-2.6	733	0.933184
-2.5	733	0.918347
-2.4	733	0.901904
-2.3	733	0.884089
-2.2	733	0.865081
-2.1	733	0.845037
-2	733	0.824103
-1.9	733	0.802427
-1.8	733	0.780162
-1.7	733	0.757467
-1.6	733	0.734508
-1.5	733	0.711453
-1.4	733	0.688464
-1.3	733	0.665698
-1.2	733	0.643293
-1.1	733	0.621368
-1	733	0.600014
-0.9	733	0.579293
-0.8	733	0.559235
-0.7	733	0.539836
-0.6	733	0.521064
-0.5	733	0.502858
-0.4	733	0.485133
-0.3	733	0.467787
-0.2	733	0.450704
-0.1	733	0.433763
0	733	0.416837
0.1	733	0.399806
0.2	733	0.382555
0.3	733	0.36498
0.4	733	0.346993
0.5	733	0.328524
0.6	733	0.309525
0.7	733	0.289973
0.8	733	0.26987
0.9	733	0.249252
1	733	0.228185
1.1	733	0.206768
1.2	733	0.185136
1.3	733	0.163455
1.4	733	0.141924
1.5	733	0.120763
1.6	733	0.100214
1.7	733	0.080526
1.8	733	0.061945
1.9	733	0.044706
2	733	0.029018
		
-3	743	0.981599
-2.9	743	0.978891
-2.8	743	0.97213
-2.7	743	0.962403
-2.6	743	0.950391
-2.5	743	0.93653
-2.4	743	0.92111
-2.3	743	0.904335
-2.2	743	0.886365
-2.1	743	0.867337
-2	743	0.847379
-1.9	743	0.826621
-1.8	743	0.805198
-1.7	743	0.783251
-1.6	743	0.760926
-1.5	743	0.738367
-1.4	743	0.715719
-1.3	743	0.693114
-1.2	743	0.67067
-1.1	743	0.648486
-1	743	0.626634
-0.9	743	0.605161
-0.8	743	0.584082
-0.7	743	0.563386
-0.6	743	0.543033
-0.5	743	0.522964
-0.4	743	0.5031
-0.3	743	0.48335
-0.2	743	0.463618
-0.1	743	0.443812
0	743	0.423845
0.1	743	0.403645
0.2	743	0.38316
0.3	743	0.362365
0.4	743	0.341261
0.5	743	0.319886
0.6	743	0.298308
0.7	743	0.276633
0.8	743	0.254999
0.9	743	0.233576
1	743	0.212555
1.1	743	0.192147
1.2	743	0.172569
1.3	743	0.154035
1.4	743	0.136744
1.5	743	0.120873
1.6	743	0.10656
1.7	743	0.093904
1.8	743	0.082957
1.9	743	0.073722
2	743	0.066159
		
-3	753	0.993279
-2.9	753	0.99078
-2.8	753	0.984554
-2.7	753	0.975562
-2.6	753	0.964403
-2.5	753	0.95146
-2.4	753	0.936983
-2.3	753	0.921149
-2.2	753	0.904091
-2.1	753	0.885927
-2	753	0.866764
-1.9	753	0.846713
-1.8	753	0.825888
-1.7	753	0.804409
-1.6	753	0.782399
-1.5	753	0.759982
-1.4	753	0.737279
-1.3	753	0.714402
-1.2	753	0.691452
-1.1	753	0.668512
-1	753	0.645646
-0.9	753	0.622896
-0.8	753	0.600282
-0.7	753	0.577808
-0.6	753	0.555458
-0.5	753	0.533208
-0.4	753	0.511029
-0.3	753	0.488895
-0.2	753	0.466787
-0.1	753	0.444704
0	753	0.422665
0.1	753	0.400714
0.2	753	0.378921
0.3	753	0.357385
0.4	753	0.33623
0.5	753	0.315599
0.6	753	0.295651
0.7	753	0.276548
0.8	753	0.258451
0.9	753	0.241505
1	753	0.225835
1.1	753	0.211533
1.2	753	0.19866
1.3	753	0.187234
1.4	753	0.177236
1.5	753	0.168613
1.6	753	0.161276
1.7	753	0.155114
1.8	753	0.149997
1.9	753	0.145781
2	753	0.142322
		
-3	763	1.001357
-2.9	763	0.999056
-2.8	763	0.993316
-2.7	763	0.984975
-2.6	763	0.974554
-2.5	763	0.962378
-2.4	763	0.948662
-2.3	763	0.93355
-2.2	763	0.917153
-2.1	763	0.899567
-2	763	0.880878
-1.9	763	0.861178
-1.8	763	0.840563
-1.7	763	0.819133
-1.6	763	0.796998
-1.5	763	0.774268
-1.4	763	0.751056
-1.3	763	0.727472
-1.2	763	0.703624
-1.1	763	0.679611
-1	763	0.655524
-0.9	763	0.631446
-0.8	763	0.607455
-0.7	763	0.583622
-0.6	763	0.560016
-0.5	763	0.536711
-0.4	763	0.513783
-0.3	763	0.491316
-0.2	763	0.469403
-0.1	763	0.448144
0	763	0.427647
0.1	763	0.408019
0.2	763	0.389364
0.3	763	0.371778
0.4	763	0.355341
0.5	763	0.340108
0.6	763	0.326112
0.7	763	0.313357
0.8	763	0.301815
0.9	763	0.291434
1	763	0.282134
1.1	763	0.273818
1.2	763	0.266374
1.3	763	0.259679
1.4	763	0.25361
1.5	763	0.248045
1.6	763	0.24287
1.7	763	0.237978
1.8	763	0.233275
1.9	763	0.228683
2	763	0.224134
		
-3	773	1.004879
-2.9	773	1.002746
-2.8	773	0.997387
-2.7	773	0.989533
-2.6	773	0.979634
-2.5	773	0.96797
-2.4	773	0.954719
-2.3	773	0.940003
-2.2	773	0.923914
-2.1	773	0.906533
-2	773	0.887938
-1.9	773	0.868215
-1.8	773	0.847457
-1.7	773	0.825774
-1.6	773	0.803286
-1.5	773	0.78013
-1.4	773	0.756453
-1.3	773	0.732411
-1.2	773	0.708172
-1.1	773	0.683905
-1	773	0.659786
-0.9	773	0.635986
-0.8	773	0.612676
-0.7	773	0.590016
-0.6	773	0.568158
-0.5	773	0.547235
-0.4	773	0.527365
-0.3	773	0.508639
-0.2	773	0.491124
-0.1	773	0.474856
0	773	0.459842
0.1	773	0.446058
0.2	773	0.43345
0.3	773	0.421942
0.4	773	0.411433
0.5	773	0.40181
0.6	773	0.392948
0.7	773	0.384719
0.8	773	0.376994
0.9	773	0.369652
1	773	0.362581
1.1	773	0.35568
1.2	773	0.348864
1.3	773	0.34206
1.4	773	0.335212
1.5	773	0.328276
1.6	773	0.321223
1.7	773	0.314035
1.8	773	0.306702
1.9	773	0.299225
2	773	0.291612
