Variables = LogStrainRate, Temperature, Xi
Zone I = 51 J = 21 F = POINT
-3	573	0.090416
-2.9	573	0.037234
-2.8	573	-0.019707
-2.7	573	-0.081161
-2.6	573	-0.148108
-2.5	573	-0.221858
-2.4	573	-0.304245
-2.3	573	-0.397955
-2.2	573	-0.507162
-2.1	573	-0.638839
-2	573	-0.805771
-1.9	573	-1.034843
-1.8	573	-1.397106
-1.7	573	-2.211385
-1.6	573	-2.322176
-1.5	573	-1.038574
-1.4	573	-0.278594
-1.3	573	0.497287
-1.2	573	1.934645
-1.1	573	1.474634
-1	573	0.749309
-0.9	573	0.414729
-0.8	573	0.205204
-0.7	573	0.056779
-0.6	573	-0.055217
-0.5	573	-0.142427
-0.4	573	-0.210914
-0.3	573	-0.263922
-0.2	573	-0.30309
-0.1	573	-0.329077
0	573	-0.341974
0.1	573	-0.341638
0.2	573	-0.328044
0.3	573	-0.301631
0.4	573	-0.263625
0.5	573	-0.216221
0.6	573	-0.162564
0.7	573	-0.106483
0.8	573	-0.052016
0.9	573	-0.002866
1	573	0.038071
1.1	573	0.068982
1.2	573	0.089172
1.3	573	0.098894
1.4	573	0.099075
1.5	573	0.091021
1.6	573	0.076171
1.7	573	0.055931
1.8	573	0.031572
1.9	573	0.004187
2	573	-0.025312
		
-3	583	0.140327
-2.9	583	0.088644
-2.8	583	0.033826
-2.7	583	-0.024673
-2.6	583	-0.087532
-2.5	583	-0.155621
-2.4	583	-0.230096
-2.3	583	-0.312561
-2.2	583	-0.405344
-2.1	583	-0.512021
-2	583	-0.638465
-1.9	583	-0.795175
-1.8	583	-1.003312
-1.7	583	-1.314504
-1.6	583	-1.914718
-1.5	583	-3.444592
-1.4	583	-1.353861
-1.3	583	-0.531627
-1.2	583	0.209857
-1.1	583	1.284559
-1	583	1.937725
-0.9	583	0.869746
-0.8	583	0.477346
-0.7	583	0.250077
-0.6	583	0.09782
-0.5	583	-0.01102
-0.4	583	-0.090692
-0.3	583	-0.148564
-0.2	583	-0.188826
-0.1	583	-0.214107
0	583	-0.226318
0.1	583	-0.227141
0.2	583	-0.218339
0.3	583	-0.201916
0.4	583	-0.180156
0.5	583	-0.155537
0.6	583	-0.130565
0.7	583	-0.107563
0.8	583	-0.088468
0.9	583	-0.074697
1	583	-0.067096
1.1	583	-0.065966
1.2	583	-0.071167
1.3	583	-0.082239
1.4	583	-0.098532
1.5	583	-0.11932
1.6	583	-0.143882
1.7	583	-0.171567
1.8	583	-0.201825
1.9	583	-0.234231
2	583	-0.268495
		
-3	593	0.189234
-2.9	593	0.1385
-2.8	593	0.08506
-2.7	593	0.028509
-2.6	593	-0.031645
-2.5	593	-0.096007
-2.4	593	-0.165353
-2.3	593	-0.24071
-2.2	593	-0.323497
-2.1	593	-0.415771
-2	593	-0.520679
-1.9	593	-0.643345
-1.8	593	-0.7928
-1.7	593	-0.986758
-1.6	593	-1.266312
-1.5	593	-1.762565
-1.4	593	-3.921656
-1.3	593	-1.632986
-1.2	593	-0.727333
-1.1	593	0.008638
-1	593	0.944117
-0.9	593	2.76963
-0.8	593	1.002848
-0.7	593	0.548108
-0.6	593	0.302788
-0.5	593	0.144788
-0.4	593	0.034669
-0.3	593	-0.045023
-0.2	593	-0.103541
-0.1	593	-0.146501
0	593	-0.177743
0.1	593	-0.200188
0.2	593	-0.216253
0.3	593	-0.228059
0.4	593	-0.237506
0.5	593	-0.246298
0.6	593	-0.255928
0.7	593	-0.267675
0.8	593	-0.2826
0.9	593	-0.301573
1	593	-0.32533
1.1	593	-0.354552
1.2	593	-0.389976
1.3	593	-0.432556
1.4	593	-0.483673
1.5	593	-0.545486
1.6	593	-0.621518
1.7	593	-0.717822
1.8	593	-0.845544
1.9	593	-1.027671
2	593	-1.321913
		
-3	603	0.236729
-2.9	603	0.186438
-2.8	603	0.133716
-2.7	603	0.078248
-2.6	603	0.019661
-2.5	603	-0.042496
-2.4	603	-0.108779
-2.3	603	-0.1799
-2.2	603	-0.256808
-2.1	603	-0.340823
-2	603	-0.433873
-1.9	603	-0.538919
-1.8	603	-0.660789
-1.7	603	-0.807969
-1.6	603	-0.996957
-1.5	603	-1.265321
-1.4	603	-1.727924
-1.3	603	-3.303647
-1.2	603	-1.780333
-1.1	603	-0.82812
-1	603	-0.091197
-0.9	603	0.80204
-0.8	603	3.747777
-0.7	603	1.038921
-0.6	603	0.544576
-0.5	603	0.281193
-0.4	603	0.108386
-0.3	603	-0.017638
-0.2	603	-0.11624
-0.1	603	-0.197879
0	603	-0.269131
0.1	603	-0.334749
0.2	603	-0.398676
0.3	603	-0.464703
0.4	603	-0.537072
0.5	603	-0.621295
0.6	603	-0.725653
0.7	603	-0.864573
0.8	603	-1.067925
0.9	603	-1.416042
1	603	-2.305561
1.1	603	-2.014039
1.2	603	-0.814361
1.3	603	-0.030707
1.4	603	0.800528
1.5	603	2.508862
1.6	603	1.63807
1.7	603	1.014884
1.8	603	0.725807
1.9	603	0.54902
2	603	0.426738
		
-3	613	0.282199
-2.9	613	0.231905
-2.8	613	0.179344
-2.7	613	0.124264
-2.6	613	0.066372
-2.5	613	0.005329
-2.4	613	-0.059274
-2.3	613	-0.127943
-2.2	613	-0.201323
-2.1	613	-0.280273
-2	613	-0.36599
-1.9	613	-0.460213
-1.8	613	-0.565596
-1.7	613	-0.686413
-1.6	613	-0.830029
-1.5	613	-1.010329
-1.4	613	-1.257385
-1.3	613	-1.654402
-1.2	613	-2.631402
-1.1	613	-2.252299
-1	613	-1.127742
-0.9	613	-0.388144
-0.8	613	0.41
-0.7	613	2.188368
-0.6	613	1.090006
-0.5	613	0.438329
-0.4	613	0.096883
-0.3	613	-0.147648
-0.2	613	-0.358303
-0.1	613	-0.570859
0	613	-0.823895
0.1	613	-1.195539
0.2	613	-2.011866
0.3	613	-2.095901
0.4	613	-0.802629
0.5	613	-0.023474
0.6	613	0.775602
0.7	613	2.245425
0.8	613	1.79161
0.9	613	1.093841
1	613	0.783089
1.1	613	0.595266
1.2	613	0.466136
1.3	613	0.370517
1.4	613	0.296148
1.5	613	0.236238
1.6	613	0.186674
1.7	613	0.144807
1.8	613	0.108836
1.9	613	0.077491
2	613	0.049845
		
-3	623	0.325089
-2.9	623	0.274523
-2.8	623	0.221817
-2.7	623	0.166786
-2.6	623	0.109228
-2.5	623	0.048919
-2.4	623	-0.01439
-2.3	623	-0.08098
-2.2	623	-0.151176
-2.1	623	-0.225367
-2	623	-0.304031
-1.9	623	-0.387784
-1.8	623	-0.477442
-1.7	623	-0.574126
-1.6	623	-0.679416
-1.5	623	-0.795608
-1.4	623	-0.926115
-1.3	623	-1.076164
-1.2	623	-1.254033
-1.1	623	-1.47338
-1	623	-1.75777
-0.9	623	-2.148639
-0.8	623	-2.700012
-0.7	623	-3.164621
-0.6	623	-2.355641
-0.5	623	-1.025819
-0.4	623	0.260668
-0.3	623	1.592415
-0.2	623	2.561364
-0.1	623	2.207086
0	623	1.655172
0.1	623	1.270227
0.2	623	1.002662
0.3	623	0.807828
0.4	623	0.659978
0.5	623	0.544055
0.6	623	0.450781
0.7	623	0.374148
0.8	623	0.310094
0.9	623	0.255773
1	623	0.209129
1.1	623	0.168642
1.2	623	0.133161
1.3	623	0.1018
1.4	623	0.073861
1.5	623	0.048791
1.6	623	0.026142
1.7	623	0.005547
1.8	623	-0.013303
1.9	623	-0.030665
2	623	-0.046764
		
-3	633	0.365641
-2.9	633	0.314982
-2.8	633	0.262401
-2.7	633	0.207813
-2.6	633	0.151146
-2.5	633	0.092343
-2.4	633	0.031373
-2.3	633	-0.031753
-2.2	633	-0.096969
-2.1	633	-0.164129
-2	633	-0.232971
-1.9	633	-0.303073
-1.8	633	-0.373778
-1.7	633	-0.444091
-1.6	633	-0.512521
-1.5	633	-0.576873
-1.4	633	-0.633963
-1.3	633	-0.679326
-1.2	633	-0.707036
-1.1	633	-0.709965
-1	633	-0.68088
-0.9	633	-0.614681
-0.8	633	-0.51126
-0.7	633	-0.377542
-0.6	633	-0.227135
-0.5	633	-0.077312
-0.4	633	0.055499
-0.3	633	0.159857
-0.2	633	0.231377
-0.1	633	0.272044
0	633	0.28766
0.1	633	0.285116
0.2	633	0.27061
0.3	633	0.248945
0.4	633	0.223504
0.5	633	0.196523
0.6	633	0.1694
0.7	633	0.142965
0.8	633	0.117676
0.9	633	0.093753
1	633	0.071271
1.1	633	0.050219
1.2	633	0.030532
1.3	633	0.012121
1.4	633	-0.005121
1.5	633	-0.021304
1.6	633	-0.036542
1.7	633	-0.050948
1.8	633	-0.064635
1.9	633	-0.077715
2	633	-0.090304
		
-3	643	0.406071
-2.9	643	0.356256
-2.8	643	0.304923
-2.7	643	0.252112
-2.6	643	0.197897
-2.5	643	0.142397
-2.4	643	0.085792
-2.3	643	0.028346
-2.2	643	-0.029575
-2.1	643	-0.087465
-2	643	-0.144645
-1.9	643	-0.20022
-1.8	643	-0.253034
-1.7	643	-0.301626
-1.6	643	-0.344204
-1.5	643	-0.378662
-1.4	643	-0.40266
-1.3	643	-0.413831
-1.2	643	-0.410119
-1.1	643	-0.390256
-1	643	-0.354274
-0.9	643	-0.303893
-0.8	643	-0.242589
-0.7	643	-0.175219
-0.6	643	-0.107262
-0.5	643	-0.04388
-0.4	643	0.010908
-0.3	643	0.054696
-0.2	643	0.086724
-0.1	643	0.107562
0	643	0.118625
0.1	643	0.121707
0.2	643	0.118626
0.3	643	0.111016
0.4	643	0.100238
0.5	643	0.087365
0.6	643	0.073208
0.7	643	0.058361
0.8	643	0.043246
0.9	643	0.028152
1	643	0.013269
1.1	643	-0.001285
1.2	643	-0.015445
1.3	643	-0.02919
1.4	643	-0.042523
1.5	643	-0.055473
1.6	643	-0.068089
1.7	643	-0.080433
1.8	643	-0.092584
1.9	643	-0.104638
2	643	-0.116708
		
-3	653	0.450888
-2.9	653	0.403379
-2.8	653	0.354814
-2.7	653	0.305309
-2.6	653	0.255015
-2.5	653	0.204132
-2.4	653	0.152922
-2.3	653	0.101729
-2.2	653	0.050992
-2.1	653	0.001269
-2	653	-0.046746
-1.9	653	-0.092206
-1.8	653	-0.134111
-1.7	653	-0.171318
-1.6	653	-0.202578
-1.5	653	-0.226614
-1.4	653	-0.242237
-1.3	653	-0.248508
-1.2	653	-0.244921
-1.1	653	-0.231584
-1	653	-0.209343
-0.9	653	-0.179788
-0.8	653	-0.145138
-0.7	653	-0.107983
-0.6	653	-0.070959
-0.5	653	-0.036415
-0.4	653	-0.006163
-0.3	653	0.018651
-0.2	653	0.037538
-0.1	653	0.050561
0	653	0.05818
0.1	653	0.061082
0.2	653	0.060049
0.3	653	0.055855
0.4	653	0.049209
0.5	653	0.040719
0.6	653	0.03089
0.7	653	0.020124
0.8	653	0.008731
0.9	653	-0.003055
1	653	-0.015067
1.1	653	-0.027192
1.2	653	-0.039358
1.3	653	-0.051536
1.4	653	-0.063723
1.5	653	-0.07595
1.6	653	-0.088271
1.7	653	-0.100768
1.8	653	-0.113555
1.9	653	-0.126774
2	653	-0.140609
		
-3	663	0.504048
-2.9	663	0.459702
-2.8	663	0.414498
-2.7	663	0.368554
-2.6	663	0.322021
-2.5	663	0.275097
-2.4	663	0.228039
-2.3	663	0.181175
-2.2	663	0.134922
-2.1	663	0.08979
-2	663	0.046396
-1.9	663	0.00546
-1.8	663	-0.032204
-1.7	663	-0.065717
-1.6	663	-0.094183
-1.5	663	-0.11675
-1.4	663	-0.132707
-1.3	663	-0.141579
-1.2	663	-0.143233
-1.1	663	-0.137949
-1	663	-0.126457
-0.9	663	-0.109908
-0.8	663	-0.089773
-0.7	663	-0.067698
-0.6	663	-0.045323
-0.5	663	-0.024117
-0.4	663	-0.005249
-0.3	663	0.010472
-0.2	663	0.022608
-0.1	663	0.031046
0	663	0.035922
0.1	663	0.037543
0.2	663	0.03631
0.3	663	0.032657
0.4	663	0.027009
0.5	663	0.019754
0.6	663	0.011228
0.7	663	0.001712
0.8	663	-0.00857
0.9	663	-0.019448
1	663	-0.030802
1.1	663	-0.042555
1.2	663	-0.054671
1.3	663	-0.067153
1.4	663	-0.080043
1.5	663	-0.093419
1.6	663	-0.107403
1.7	663	-0.12216
1.8	663	-0.137913
1.9	663	-0.154952
2	663	-0.173655
		
-3	673	0.564598
-2.9	673	0.522891
-2.8	673	0.480204
-2.7	673	0.436653
-2.6	673	0.392395
-2.5	673	0.347636
-2.4	673	0.302644
-2.3	673	0.257752
-2.2	673	0.213373
-2.1	673	0.170001
-2	673	0.128213
-1.9	673	0.08866
-1.8	673	0.052048
-1.7	673	0.019114
-1.6	673	-0.009423
-1.5	673	-0.032916
-1.4	673	-0.050858
-1.3	673	-0.062951
-1.2	673	-0.06917
-1.1	673	-0.069801
-1	673	-0.065449
-0.9	673	-0.057004
-0.8	673	-0.045565
-0.7	673	-0.03234
-0.6	673	-0.018527
-0.5	673	-0.005209
-0.4	673	0.006727
-0.3	673	0.016634
-0.2	673	0.024112
-0.1	673	0.028985
0	673	0.03126
0.1	673	0.031075
0.2	673	0.02865
0.3	673	0.024246
0.4	673	0.018133
0.5	673	0.010565
0.6	673	0.001768
0.7	673	-0.008072
0.8	673	-0.01881
0.9	673	-0.030347
1	673	-0.042626
1.1	673	-0.055638
1.2	673	-0.069419
1.3	673	-0.084055
1.4	673	-0.099687
1.5	673	-0.116521
1.6	673	-0.134838
1.7	673	-0.155015
1.8	673	-0.177559
1.9	673	-0.203146
2	673	-0.232696
		
-3	683	0.627186
-2.9	683	0.587027
-2.8	683	0.545682
-2.7	683	0.503294
-2.6	683	0.460052
-2.5	683	0.416191
-2.4	683	0.372001
-2.3	683	0.327836
-2.2	683	0.284116
-2.1	683	0.241327
-2	683	0.200019
-1.9	683	0.160794
-1.8	683	0.124287
-1.7	683	0.091137
-1.6	683	0.061949
-1.5	683	0.037247
-1.4	683	0.017417
-1.3	683	0.00266
-1.2	683	-0.007051
-1.1	683	-0.011992
-1	683	-0.012685
-0.9	683	-0.009865
-0.8	683	-0.004419
-0.7	683	0.002693
-0.6	683	0.010521
-0.5	683	0.018199
-0.4	683	0.025007
-0.3	683	0.030397
-0.2	683	0.034005
-0.1	683	0.035632
0	683	0.035219
0.1	683	0.032811
0.2	683	0.02852
0.3	683	0.022496
0.4	683	0.0149
0.5	683	0.005882
0.6	683	-0.00443
0.7	683	-0.015942
0.8	683	-0.028601
0.9	683	-0.042402
1	683	-0.057394
1.1	683	-0.073684
1.2	683	-0.091452
1.3	683	-0.110961
1.4	683	-0.132577
1.5	683	-0.156805
1.6	683	-0.184331
1.7	683	-0.216098
1.8	683	-0.253423
1.9	683	-0.298199
2	683	-0.353243
		
-3	693	0.686909
-2.9	693	0.64768
-2.8	693	0.607119
-2.7	693	0.5654
-2.6	693	0.522738
-2.5	693	0.479389
-2.4	693	0.435662
-2.3	693	0.391921
-2.2	693	0.348582
-2.1	693	0.306121
-2	693	0.26506
-1.9	693	0.225956
-1.8	693	0.189385
-1.7	693	0.155913
-1.6	693	0.126059
-1.5	693	0.100256
-1.4	693	0.078809
-1.3	693	0.061856
-1.2	693	0.049339
-1.1	693	0.040991
-1	693	0.03635
-0.9	693	0.034785
-0.8	693	0.035551
-0.7	693	0.037845
-0.6	693	0.040878
-0.5	693	0.043929
-0.4	693	0.046383
-0.3	693	0.047761
-0.2	693	0.047724
-0.1	693	0.046057
0	693	0.042656
0.1	693	0.037495
0.2	693	0.030601
0.3	693	0.02203
0.4	693	0.01184
0.5	693	0.000076
0.6	693	-0.013246
0.7	693	-0.028154
0.8	693	-0.044731
0.9	693	-0.063128
1	693	-0.083586
1.1	693	-0.106449
1.2	693	-0.132204
1.3	693	-0.161526
1.4	693	-0.195349
1.5	693	-0.234991
1.6	693	-0.282347
1.7	693	-0.340245
1.8	693	-0.413113
1.9	693	-0.508358
2	693	-0.639567
		
-3	703	0.741676
-2.9	703	0.703354
-2.8	703	0.663603
-2.7	703	0.622613
-2.6	703	0.580611
-2.5	703	0.537867
-2.4	703	0.494696
-2.3	703	0.451459
-2.2	703	0.40857
-2.1	703	0.366485
-2	703	0.325699
-1.9	703	0.286731
-1.8	703	0.250107
-1.7	703	0.216331
-1.6	703	0.185856
-1.5	703	0.159048
-1.4	703	0.13615
-1.3	703	0.117256
-1.2	703	0.102288
-1.1	703	0.090991
-1	703	0.082946
-0.9	703	0.077598
-0.8	703	0.074301
-0.7	703	0.072364
-0.6	703	0.071108
-0.5	703	0.069905
-0.4	703	0.068212
-0.3	703	0.065591
-0.2	703	0.061708
-0.1	703	0.056327
0	703	0.049291
0.1	703	0.040503
0.2	703	0.029896
0.3	703	0.01742
0.4	703	0.003007
0.5	703	-0.013437
0.6	703	-0.032063
0.7	703	-0.053092
0.8	703	-0.076848
0.9	703	-0.103786
1	703	-0.134542
1.1	703	-0.170002
1.2	703	-0.211414
1.3	703	-0.260571
1.4	703	-0.320139
1.5	703	-0.394258
1.6	703	-0.489776
1.7	703	-0.619065
1.8	703	-0.80759
1.9	703	-1.120624
2	703	-1.830074
		
-3	713	0.791258
-2.9	713	0.754112
-2.8	713	0.715442
-2.7	713	0.675448
-2.6	713	0.63436
-2.5	713	0.592453
-2.4	713	0.550042
-2.3	713	0.507484
-2.2	713	0.465181
-2.1	713	0.423573
-2	713	0.383128
-1.9	713	0.344332
-1.8	713	0.307665
-1.7	713	0.273581
-1.6	713	0.24248
-1.5	713	0.214671
-1.4	713	0.190354
-1.3	713	0.169587
-1.2	713	0.152276
-1.1	713	0.138177
-1	713	0.126904
-0.9	713	0.117956
-0.8	713	0.110755
-0.7	713	0.10469
-0.6	713	0.09915
-0.5	713	0.093568
-0.4	713	0.087439
-0.3	713	0.080333
-0.2	713	0.071902
-0.1	713	0.061863
0	713	0.049988
0.1	713	0.03608
0.2	713	0.019953
0.3	713	0.001404
0.4	713	-0.019814
0.5	713	-0.044016
0.6	713	-0.071626
0.7	713	-0.103215
0.8	713	-0.139572
0.9	713	-0.181788
1	713	-0.231416
1.1	713	-0.290724
1.2	713	-0.363161
1.3	713	-0.454278
1.4	713	-0.573712
1.5	713	-0.740169
1.6	713	-0.996883
1.7	713	-1.483463
1.8	713	-4.14371
1.9	713	-1.234881
2	713	-0.331634
		
-3	723	0.835934
-2.9	723	0.800286
-2.8	723	0.763006
-2.7	723	0.724294
-2.6	723	0.684382
-2.5	723	0.643541
-2.4	723	0.602082
-2.3	723	0.560356
-2.2	723	0.518752
-2.1	723	0.477689
-2	723	0.437612
-1.9	723	0.398972
-1.8	723	0.362211
-1.7	723	0.327737
-1.6	723	0.295903
-1.5	723	0.266972
-1.4	723	0.241103
-1.3	723	0.218326
-1.2	723	0.198533
-1.1	723	0.181483
-1	723	0.16681
-0.9	723	0.154049
-0.8	723	0.142667
-0.7	723	0.132097
-0.6	723	0.12177
-0.5	723	0.111143
-0.4	723	0.099716
-0.3	723	0.087043
-0.2	723	0.072726
-0.1	723	0.056411
0	723	0.037767
0.1	723	0.016464
0.2	723	-0.007848
0.3	723	-0.035577
0.4	723	-0.067224
0.5	723	-0.103429
0.6	723	-0.14504
0.7	723	-0.193218
0.8	723	-0.249587
0.9	723	-0.316518
1	723	-0.39762
1.1	723	-0.498737
1.2	723	-0.630119
1.3	723	-0.811982
1.4	723	-1.092312
1.5	723	-1.635357
1.6	723	-3.995014
1.7	723	-1.199871
1.8	723	-0.345311
1.9	723	0.396177
2	723	1.413832
		
-3	733	0.875813
-2.9	733	0.841939
-2.8	733	0.806306
-2.7	733	0.769108
-2.6	733	0.730572
-2.5	733	0.690962
-2.4	733	0.650582
-2.3	733	0.60977
-2.2	733	0.568899
-2.1	733	0.528366
-2	733	0.488589
-1.9	733	0.449984
-1.8	733	0.412955
-1.7	733	0.377867
-1.6	733	0.345025
-1.5	733	0.314653
-1.4	733	0.28687
-1.3	733	0.261675
-1.2	733	0.238946
-1.1	733	0.218437
-1	733	0.19979
-0.9	733	0.182561
-0.8	733	0.16624
-0.7	733	0.150285
-0.6	733	0.134144
-0.5	733	0.117279
-0.4	733	0.099179
-0.3	733	0.079369
-0.2	733	0.057402
-0.1	733	0.032857
0	733	0.005318
0.1	733	-0.025647
0.2	733	-0.060506
0.3	733	-0.099805
0.4	733	-0.144202
0.5	733	-0.194535
0.6	733	-0.251905
0.7	733	-0.317823
0.8	733	-0.394451
0.9	733	-0.485041
1	733	-0.59479
1.1	733	-0.732681
1.2	733	-0.916028
1.3	733	-1.184228
1.4	733	-1.659437
1.5	733	-3.445069
1.6	733	-1.634397
1.7	733	-0.712895
1.8	733	0.010837
1.9	733	0.905582
2	733	3.182463
		
-3	743	0.910599
-2.9	743	0.878679
-2.8	743	0.844849
-2.7	743	0.809294
-2.6	743	0.772228
-2.5	743	0.733905
-2.4	743	0.694612
-2.3	743	0.654669
-2.2	743	0.614427
-2.1	743	0.574257
-2	743	0.534544
-1.9	743	0.495668
-1.8	743	0.457991
-1.7	743	0.421833
-1.6	743	0.387456
-1.5	743	0.355041
-1.4	743	0.324671
-1.3	743	0.296321
-1.2	743	0.269852
-1.1	743	0.245016
-1	743	0.22147
-0.9	743	0.198791
-0.8	743	0.176505
-0.7	743	0.154109
-0.6	743	0.131098
-0.5	743	0.106984
-0.4	743	0.081315
-0.3	743	0.053687
-0.2	743	0.023744
-0.1	743	-0.008808
0	743	-0.04421
0.1	743	-0.082639
0.2	743	-0.12421
0.3	743	-0.168959
0.4	743	-0.216833
0.5	743	-0.267655
0.6	743	-0.321088
0.7	743	-0.376562
0.8	743	-0.433188
0.9	743	-0.489614
1	743	-0.543836
1.1	743	-0.592966
1.2	743	-0.632968
1.3	743	-0.658509
1.4	743	-0.663136
1.5	743	-0.640142
1.6	743	-0.584371
1.7	743	-0.494674
1.8	743	-0.375922
1.9	743	-0.239186
2	743	-0.099555
		
-3	753	0.939449
-2.9	753	0.909516
-2.8	753	0.877495
-2.7	753	0.84355
-2.6	753	0.807881
-2.5	753	0.770718
-2.4	753	0.732327
-2.3	753	0.693002
-2.2	753	0.653066
-2.1	753	0.612858
-2	753	0.572725
-1.9	753	0.533011
-1.8	753	0.494036
-1.7	753	0.456084
-1.6	753	0.419383
-1.5	753	0.384087
-1.4	753	0.350267
-1.3	753	0.317901
-1.2	753	0.286875
-1.1	753	0.256993
-1	753	0.227987
-0.9	753	0.199544
-0.8	753	0.171331
-0.7	753	0.143022
-0.6	753	0.114334
-0.5	753	0.085051
-0.4	753	0.055052
-0.3	753	0.024335
-0.2	753	-0.006961
-0.1	753	-0.038542
0	753	-0.069944
0.1	753	-0.100526
0.2	753	-0.129469
0.3	753	-0.155799
0.4	753	-0.178417
0.5	753	-0.196169
0.6	753	-0.207946
0.7	753	-0.212816
0.8	753	-0.210174
0.9	753	-0.199899
1	753	-0.182456
1.1	753	-0.158933
1.2	753	-0.130965
1.3	753	-0.100559
1.4	753	-0.069841
1.5	753	-0.040793
1.6	753	-0.015026
1.7	753	0.006352
1.8	753	0.022771
1.9	753	0.034142
2	753	0.040749
		
-3	763	0.960751
-2.9	763	0.932622
-2.8	763	0.902187
-2.7	763	0.869586
-2.6	763	0.834991
-2.5	763	0.798609
-2.4	763	0.760675
-2.3	763	0.721459
-2.2	763	0.681253
-2.1	763	0.64037
-2	763	0.599133
-1.9	763	0.557866
-1.8	763	0.516881
-1.7	763	0.476464
-1.6	763	0.436865
-1.5	763	0.398285
-1.4	763	0.360874
-1.3	763	0.324727
-1.2	763	0.289892
-1.1	763	0.25638
-1	763	0.224182
-0.9	763	0.193297
-0.8	763	0.163749
-0.7	763	0.135613
-0.6	763	0.109034
-0.5	763	0.084236
-0.4	763	0.06152
-0.3	763	0.041248
-0.2	763	0.023817
-0.1	763	0.009612
0	763	-0.001043
0.1	763	-0.007947
0.2	763	-0.011069
0.3	763	-0.010583
0.4	763	-0.006886
0.5	763	-0.000575
0.6	763	0.007602
0.7	763	0.016811
0.8	763	0.026213
0.9	763	0.035045
1	763	0.042674
1.1	763	0.048636
1.2	763	0.052646
1.3	763	0.054584
1.4	763	0.054471
1.5	763	0.052432
1.6	763	0.048663
1.7	763	0.043397
1.8	763	0.036882
1.9	763	0.029361
2	763	0.02106
		
-3	773	0.971819
-2.9	773	0.945037
-2.8	773	0.915696
-2.7	773	0.883912
-2.6	773	0.849837
-2.5	773	0.813657
-2.4	773	0.775598
-2.3	773	0.735924
-2.2	773	0.694933
-2.1	773	0.652958
-2	773	0.610361
-1.9	773	0.567526
-1.8	773	0.524854
-1.7	773	0.482754
-1.6	773	0.441636
-1.5	773	0.401903
-1.4	773	0.363947
-1.3	773	0.328136
-1.2	773	0.294817
-1.1	773	0.264303
-1	773	0.23687
-0.9	773	0.212742
-0.8	773	0.192079
-0.7	773	0.174966
-0.6	773	0.161385
-0.5	773	0.151212
-0.4	773	0.1442
-0.3	773	0.139984
-0.2	773	0.138094
-0.1	773	0.137981
0	773	0.139053
0.1	773	0.140715
0.2	773	0.142413
0.3	773	0.143667
0.4	773	0.144093
0.5	773	0.143414
0.6	773	0.141461
0.7	773	0.138164
0.8	773	0.133532
0.9	773	0.127635
1	773	0.120587
1.1	773	0.112528
1.2	773	0.103611
1.3	773	0.093988
1.4	773	0.08381
1.5	773	0.073214
1.6	773	0.062325
1.7	773	0.051255
1.8	773	0.0401
1.9	773	0.028944
2	773	0.017858

