Variables = LogStrainRate,Temperature , P 
Zone I = 51 J= 21
-3	573	0.29381
-2.9	573	0.289451
-2.8	573	0.278822
-2.7	573	0.263952
-2.6	573	0.246396
-2.5	573	0.227367
-2.4	573	0.207811
-2.3	573	0.188471
-2.2	573	0.169917
-2.1	573	0.152576
-2	573	0.13675
-1.9	573	0.122631
-1.8	573	0.110312
-1.7	573	0.099806
-1.6	573	0.091057
-1.5	573	0.083953
-1.4	573	0.078342
-1.3	573	0.074043
-1.2	573	0.070861
-1.1	573	0.068595
-1	573	0.067048
-0.9	573	0.066033
-0.8	573	0.065377
-0.7	573	0.064927
-0.6	573	0.064547
-0.5	573	0.064123
-0.4	573	0.063561
-0.3	573	0.062783
-0.2	573	0.06173
-0.1	573	0.060357
0	573	0.058633
0.1	573	0.056539
0.2	573	0.054064
0.3	573	0.051207
0.4	573	0.047973
0.5	573	0.044374
0.6	573	0.040429
0.7	573	0.036159
0.8	573	0.031593
0.9	573	0.026762
1	573	0.021703
1.1	573	0.016457
1.2	573	0.011069
1.3	573	0.005588
1.4	573	0.000066
1.5	573	-0.005441
1.6	573	-0.010875
1.7	573	-0.016176
1.8	573	-0.021286
1.9	573	-0.026146
2	573	-0.030702
		
-3	583	0.334056
-2.9	583	0.329646
-2.8	583	0.318839
-2.7	583	0.303701
-2.6	583	0.285803
-2.5	583	0.26636
-2.4	583	0.246316
-2.3	583	0.226404
-2.2	583	0.20719
-2.1	583	0.189094
-2	583	0.172415
-1.9	583	0.157342
-1.8	583	0.143972
-1.7	583	0.132321
-1.6	583	0.122336
-1.5	583	0.113915
-1.4	583	0.106913
-1.3	583	0.101159
-1.2	583	0.096466
-1.1	583	0.092643
-1	583	0.089501
-0.9	583	0.08686
-0.8	583	0.084554
-0.7	583	0.082435
-0.6	583	0.080376
-0.5	583	0.078265
-0.4	583	0.076014
-0.3	583	0.073551
-0.2	583	0.070822
-0.1	583	0.067789
0	583	0.06443
0.1	583	0.060732
0.2	583	0.056698
0.3	583	0.052338
0.4	583	0.047675
0.5	583	0.042738
0.6	583	0.037563
0.7	583	0.032196
0.8	583	0.026685
0.9	583	0.021085
1	583	0.015457
1.1	583	0.00986
1.2	583	0.004359
1.3	583	-0.000983
1.4	583	-0.006105
1.5	583	-0.010947
1.6	583	-0.015457
1.7	583	-0.019588
1.8	583	-0.0233
1.9	583	-0.026564
2	583	-0.029358
		
-3	593	0.37408
-2.9	593	0.369619
-2.8	593	0.35864
-2.7	593	0.343241
-2.6	593	0.325007
-2.5	593	0.305151
-2.4	593	0.284612
-2.3	593	0.264115
-2.2	593	0.244216
-2.1	593	0.225328
-2	593	0.207746
-1.9	593	0.191655
-1.8	593	0.177154
-1.7	593	0.164262
-1.6	593	0.152932
-1.5	593	0.143069
-1.4	593	0.134538
-1.3	593	0.127178
-1.2	593	0.120813
-1.1	593	0.115263
-1	593	0.110351
-0.9	593	0.105908
-0.8	593	0.10178
-0.7	593	0.097832
-0.6	593	0.093946
-0.5	593	0.090026
-0.4	593	0.085996
-0.3	593	0.0818
-0.2	593	0.077399
-0.1	593	0.072775
0	593	0.067923
0.1	593	0.062852
0.2	593	0.057587
0.3	593	0.052161
0.4	593	0.046618
0.5	593	0.041009
0.6	593	0.03539
0.7	593	0.029823
0.8	593	0.024368
0.9	593	0.019088
1	593	0.014042
1.1	593	0.009284
1.2	593	0.004862
1.3	593	0.000817
1.4	593	-0.002819
1.5	593	-0.006023
1.6	593	-0.008785
1.7	593	-0.011101
1.8	593	-0.012978
1.9	593	-0.014434
2	593	-0.015491
		
-3	603	0.413406
-2.9	603	0.408893
-2.8	603	0.397737
-2.7	603	0.38207
-2.6	603	0.363486
-2.5	603	0.343196
-2.4	603	0.322131
-2.3	603	0.301006
-2.2	603	0.280366
-2.1	603	0.260618
-2	603	0.242049
-1.9	603	0.224846
-1.8	603	0.209106
-1.7	603	0.194854
-1.6	603	0.182052
-1.5	603	0.170615
-1.4	603	0.160422
-1.3	603	0.151327
-1.2	603	0.143171
-1.1	603	0.135792
-1	603	0.129031
-0.9	603	0.122741
-0.8	603	0.116789
-0.7	603	0.111062
-0.6	603	0.105466
-0.5	603	0.099928
-0.4	603	0.094398
-0.3	603	0.088843
-0.2	603	0.08325
-0.1	603	0.077623
0	603	0.07198
0.1	603	0.06635
0.2	603	0.060771
0.3	603	0.055288
0.4	603	0.049949
0.5	603	0.044802
0.6	603	0.039896
0.7	603	0.035273
0.8	603	0.030971
0.9	603	0.027019
1	603	0.02344
1.1	603	0.020247
1.2	603	0.017443
1.3	603	0.015025
1.4	603	0.01298
1.5	603	0.011289
1.6	603	0.009926
1.7	603	0.008863
1.8	603	0.008067
1.9	603	0.007505
2	603	0.007141
		
-3	613	0.451438
-2.9	613	0.446865
-2.8	613	0.435517
-2.7	613	0.419558
-2.6	613	0.40059
-2.5	613	0.379823
-2.4	613	0.358178
-2.3	613	0.336361
-2.2	613	0.314908
-2.1	613	0.294219
-2	613	0.27458
-1.9	613	0.256179
-1.8	613	0.239121
-1.7	613	0.22344
-1.6	613	0.209115
-1.5	613	0.196078
-1.4	613	0.184231
-1.3	613	0.173453
-1.2	613	0.163613
-1.1	613	0.154576
-1	613	0.146214
-0.9	613	0.13841
-0.8	613	0.131063
-0.7	613	0.124087
-0.6	613	0.117416
-0.5	613	0.111002
-0.4	613	0.104814
-0.3	613	0.098838
-0.2	613	0.093071
-0.1	613	0.087519
0	613	0.082198
0.1	613	0.077126
0.2	613	0.072324
0.3	613	0.06781
0.4	613	0.0636
0.5	613	0.059707
0.6	613	0.056137
0.7	613	0.052889
0.8	613	0.049959
0.9	613	0.047335
1	613	0.045001
1.1	613	0.042935
1.2	613	0.041114
1.3	613	0.039512
1.4	613	0.038101
1.5	613	0.036853
1.6	613	0.035742
1.7	613	0.034742
1.8	613	0.03383
1.9	613	0.032983
2	613	0.032182
		
-3	623	0.487496
-2.9	623	0.482853
-2.8	623	0.471294
-2.7	623	0.455015
-2.6	623	0.43563
-2.5	623	0.41435
-2.4	623	0.39209
-2.3	623	0.369551
-2.2	623	0.347266
-2.1	623	0.325636
-2	623	0.304953
-1.9	623	0.285415
-1.8	623	0.267143
-1.7	623	0.250194
-1.6	623	0.234572
-1.5	623	0.220239
-1.4	623	0.207127
-1.3	623	0.195148
-1.2	623	0.184203
-1.1	623	0.17419
-1	623	0.16501
-0.9	623	0.156569
-0.8	623	0.148786
-0.7	623	0.141587
-0.6	623	0.134913
-0.5	623	0.128714
-0.4	623	0.12295
-0.3	623	0.117589
-0.2	623	0.112603
-0.1	623	0.107969
0	623	0.103666
0.1	623	0.099675
0.2	623	0.095976
0.3	623	0.092548
0.4	623	0.089369
0.5	623	0.086416
0.6	623	0.083667
0.7	623	0.081097
0.8	623	0.078684
0.9	623	0.076404
1	623	0.074234
1.1	623	0.072156
1.2	623	0.07015
1.3	623	0.068199
1.4	623	0.06629
1.5	623	0.064409
1.6	623	0.062547
1.7	623	0.060697
1.8	623	0.058852
1.9	623	0.057007
2	623	0.05516
		
-3	633	0.521036
-2.9	633	0.516323
-2.8	633	0.504559
-2.7	633	0.487981
-2.6	633	0.468221
-2.5	633	0.446494
-2.4	633	0.42372
-2.3	633	0.400605
-2.2	633	0.377688
-2.1	633	0.355383
-2	633	0.333996
-1.9	633	0.313746
-1.8	633	0.29478
-1.7	633	0.277179
-1.6	633	0.260974
-1.5	633	0.246153
-1.4	633	0.232674
-1.3	633	0.220467
-1.2	633	0.20945
-1.1	633	0.199526
-1	633	0.190598
-0.9	633	0.182566
-0.8	633	0.175333
-0.7	633	0.168806
-0.6	633	0.162898
-0.5	633	0.157528
-0.4	633	0.152621
-0.3	633	0.148111
-0.2	633	0.143935
-0.1	633	0.140039
0	633	0.136372
0.1	633	0.13289
0.2	633	0.129554
0.3	633	0.126331
0.4	633	0.123192
0.5	633	0.120112
0.6	633	0.117071
0.7	633	0.114053
0.8	633	0.111045
0.9	633	0.108037
1	633	0.105024
1.1	633	0.102002
1.2	633	0.098968
1.3	633	0.095924
1.4	633	0.092871
1.5	633	0.089812
1.6	633	0.08675
1.7	633	0.083692
1.8	633	0.08064
1.9	633	0.077601
2	633	0.074579
		
-3	643	0.552194
-2.9	643	0.547443
-2.8	643	0.53558
-2.7	643	0.518878
-2.6	643	0.49899
-2.5	643	0.477145
-2.4	643	0.454273
-2.3	643	0.431088
-2.2	643	0.408143
-2.1	643	0.385863
-2	643	0.364567
-1.9	643	0.344487
-1.8	643	0.325779
-1.7	643	0.308532
-1.6	643	0.29278
-1.5	643	0.27851
-1.4	643	0.265668
-1.3	643	0.254174
-1.2	643	0.243923
-1.1	643	0.234799
-1	643	0.226673
-0.9	643	0.219419
-0.8	643	0.21291
-0.7	643	0.207025
-0.6	643	0.201652
-0.5	643	0.196688
-0.4	643	0.192043
-0.3	643	0.187635
-0.2	643	0.183397
-0.1	643	0.179271
0	643	0.17521
0.1	643	0.171178
0.2	643	0.167146
0.3	643	0.163093
0.4	643	0.159006
0.5	643	0.154876
0.6	643	0.150699
0.7	643	0.146477
0.8	643	0.142212
0.9	643	0.13791
1	643	0.13358
1.1	643	0.12923
1.2	643	0.12487
1.3	643	0.120509
1.4	643	0.116158
1.5	643	0.111825
1.6	643	0.107521
1.7	643	0.103253
1.8	643	0.099029
1.9	643	0.094856
2	643	0.090739
		
-3	653	0.58256
-2.9	653	0.577874
-2.8	653	0.56618
-2.7	653	0.549767
-2.6	653	0.530294
-2.5	653	0.508986
-2.4	653	0.486771
-2.3	653	0.464356
-2.2	653	0.442283
-2.1	653	0.420964
-2	653	0.400704
-1.9	653	0.381714
-1.8	653	0.364126
-1.7	653	0.348005
-1.6	653	0.333353
-1.5	653	0.320129
-1.4	653	0.30825
-1.3	653	0.297607
-1.2	653	0.288071
-1.1	653	0.279503
-1	653	0.271761
-0.9	653	0.264706
-0.8	653	0.258205
-0.7	653	0.252138
-0.6	653	0.246396
-0.5	653	0.240887
-0.4	653	0.23553
-0.3	653	0.230261
-0.2	653	0.225028
-0.1	653	0.219792
0	653	0.214524
0.1	653	0.209205
0.2	653	0.203825
0.3	653	0.19838
0.4	653	0.192869
0.5	653	0.1873
0.6	653	0.18168
0.7	653	0.17602
0.8	653	0.170333
0.9	653	0.164633
1	653	0.158932
1.1	653	0.153244
1.2	653	0.147581
1.3	653	0.141957
1.4	653	0.136382
1.5	653	0.130866
1.6	653	0.125417
1.7	653	0.120042
1.8	653	0.114748
1.9	653	0.109539
2	653	0.104416
		
-3	663	0.615203
-2.9	663	0.610731
-2.8	663	0.599571
-2.7	663	0.583966
-2.6	663	0.565528
-2.5	663	0.545437
-2.4	663	0.524575
-2.3	663	0.503602
-2.2	663	0.483017
-2.1	663	0.463184
-2	663	0.444363
-1.9	663	0.426723
-1.8	663	0.410358
-1.7	663	0.395297
-1.6	663	0.381518
-1.5	663	0.368955
-1.4	663	0.357514
-1.3	663	0.347078
-1.2	663	0.33752
-1.1	663	0.328706
-1	663	0.320508
-0.9	663	0.3128
-0.8	663	0.305471
-0.7	663	0.298419
-0.6	663	0.291559
-0.5	663	0.284819
-0.4	663	0.278141
-0.3	663	0.27148
-0.2	663	0.264803
-0.1	663	0.258086
0	663	0.251318
0.1	663	0.244492
0.2	663	0.237607
0.3	663	0.23067
0.4	663	0.223688
0.5	663	0.216674
0.6	663	0.20964
0.7	663	0.202601
0.8	663	0.19557
0.9	663	0.188564
1	663	0.181594
1.1	663	0.174675
1.2	663	0.167818
1.3	663	0.161033
1.4	663	0.154329
1.5	663	0.147713
1.6	663	0.141191
1.7	663	0.134764
1.8	663	0.128436
1.9	663	0.122206
2	663	0.11607
		
-3	673	0.652557
-2.9	673	0.648397
-2.8	673	0.637981
-2.7	673	0.623437
-2.6	673	0.606276
-2.5	673	0.587594
-2.4	673	0.568193
-2.3	673	0.548668
-2.2	673	0.529456
-2.1	673	0.510872
-2	673	0.493134
-1.9	673	0.476379
-1.8	673	0.460678
-1.7	673	0.446046
-1.6	673	0.432456
-1.5	673	0.419846
-1.4	673	0.408131
-1.3	673	0.397208
-1.2	673	0.38697
-1.1	673	0.377304
-1	673	0.368103
-0.9	673	0.359266
-0.8	673	0.350704
-0.7	673	0.342338
-0.6	673	0.334101
-0.5	673	0.325939
-0.4	673	0.31781
-0.3	673	0.309682
-0.2	673	0.301535
-0.1	673	0.293354
0	673	0.285135
0.1	673	0.276877
0.2	673	0.268584
0.3	673	0.260266
0.4	673	0.251933
0.5	673	0.243597
0.6	673	0.235272
0.7	673	0.226971
0.8	673	0.218707
0.9	673	0.210494
1	673	0.202343
1.1	673	0.194262
1.2	673	0.186262
1.3	673	0.178347
1.4	673	0.170523
1.5	673	0.162792
1.6	673	0.155153
1.7	673	0.147603
1.8	673	0.140139
1.9	673	0.132752
2	673	0.125432
		
-3	683	0.693712
-2.9	683	0.689839
-2.8	683	0.680079
-2.7	683	0.666434
-2.6	683	0.650308
-2.5	683	0.632708
-2.4	683	0.614367
-2.3	683	0.59582
-2.2	683	0.57746
-2.1	683	0.559569
-2	683	0.542341
-1.9	683	0.5259
-1.8	683	0.51031
-1.7	683	0.49559
-1.6	683	0.481718
-1.5	683	0.468645
-1.4	683	0.456302
-1.3	683	0.444604
-1.2	683	0.433462
-1.1	683	0.422784
-1	683	0.41248
-0.9	683	0.402469
-0.8	683	0.392677
-0.7	683	0.383038
-0.6	683	0.373501
-0.5	683	0.36402
-0.4	683	0.354565
-0.3	683	0.34511
-0.2	683	0.33564
-0.1	683	0.326147
0	683	0.316627
0.1	683	0.307083
0.2	683	0.297521
0.3	683	0.287948
0.4	683	0.278376
0.5	683	0.268815
0.6	683	0.259276
0.7	683	0.249771
0.8	683	0.240309
0.9	683	0.2309
1	683	0.22155
1.1	683	0.212265
1.2	683	0.203047
1.3	683	0.193896
1.4	683	0.184811
1.5	683	0.175784
1.6	683	0.166809
1.7	683	0.157873
1.8	683	0.148961
1.9	683	0.140054
2	683	0.131131
		
-3	693	0.73504
-2.9	693	0.73136
-2.8	693	0.722048
-2.7	693	0.709008
-2.6	693	0.693567
-2.5	693	0.676668
-2.4	693	0.65899
-2.3	693	0.64103
-2.2	693	0.623151
-2.1	693	0.605614
-2	693	0.5886
-1.9	693	0.572224
-1.8	693	0.55655
-1.7	693	0.5416
-1.6	693	0.527359
-1.5	693	0.513788
-1.4	693	0.500829
-1.3	693	0.48841
-1.2	693	0.476454
-1.1	693	0.464884
-1	693	0.453621
-0.9	693	0.442597
-0.8	693	0.431747
-0.7	693	0.421016
-0.6	693	0.410359
-0.5	693	0.399739
-0.4	693	0.389129
-0.3	693	0.378508
-0.2	693	0.367865
-0.1	693	0.357191
0	693	0.346487
0.1	693	0.335752
0.2	693	0.324993
0.3	693	0.314215
0.4	693	0.303427
0.5	693	0.292636
0.6	693	0.281851
0.7	693	0.271076
0.8	693	0.260317
0.9	693	0.249576
1	693	0.238854
1.1	693	0.228146
1.2	693	0.217448
1.3	693	0.20675
1.4	693	0.196038
1.5	693	0.185295
1.6	693	0.174501
1.7	693	0.16363
1.8	693	0.152652
1.9	693	0.141535
2	693	0.130242
		
-3	703	0.773343
-2.9	703	0.769795
-2.8	703	0.760809
-2.7	703	0.748223
-2.6	703	0.733306
-2.5	703	0.716954
-2.4	703	0.699807
-2.3	703	0.682331
-2.2	703	0.664862
-2.1	703	0.647645
-2	703	0.630846
-1.9	703	0.614575
-1.8	703	0.598891
-1.7	703	0.583816
-1.6	703	0.569337
-1.5	703	0.555421
-1.4	703	0.542016
-1.3	703	0.529059
-1.2	703	0.516481
-1.1	703	0.504212
-1	703	0.492185
-0.9	703	0.480335
-0.8	703	0.468607
-0.7	703	0.456951
-0.6	703	0.445328
-0.5	703	0.433705
-0.4	703	0.422057
-0.3	703	0.410367
-0.2	703	0.398621
-0.1	703	0.386814
0	703	0.374942
0.1	703	0.363005
0.2	703	0.351004
0.3	703	0.338943
0.4	703	0.326824
0.5	703	0.314648
0.6	703	0.302416
0.7	703	0.290126
0.8	703	0.277774
0.9	703	0.265352
1	703	0.252848
1.1	703	0.240248
1.2	703	0.227533
1.3	703	0.21468
1.4	703	0.201661
1.5	703	0.188446
1.6	703	0.174998
1.7	703	0.16128
1.8	703	0.147252
1.9	703	0.132872
2	703	0.118096
		
-3	713	0.807367
-2.9	713	0.80394
-2.8	713	0.795276
-2.7	713	0.78315
-2.6	713	0.76878
-2.5	713	0.753014
-2.4	713	0.736456
-2.3	713	0.71954
-2.2	713	0.70258
-2.1	713	0.685799
-2	713	0.669351
-1.9	713	0.653335
-1.8	713	0.637803
-1.7	713	0.622774
-1.6	713	0.608236
-1.5	713	0.594156
-1.4	713	0.580486
-1.3	713	0.567167
-1.2	713	0.554136
-1.1	713	0.541329
-1	713	0.528682
-0.9	713	0.516139
-0.8	713	0.503646
-0.7	713	0.491159
-0.6	713	0.478639
-0.5	713	0.466057
-0.4	713	0.453387
-0.3	713	0.440611
-0.2	713	0.427715
-0.1	713	0.414689
0	713	0.401525
0.1	713	0.388219
0.2	713	0.374764
0.3	713	0.361156
0.4	713	0.347388
0.5	713	0.333452
0.6	713	0.319336
0.7	713	0.305027
0.8	713	0.290507
0.9	713	0.275757
1	713	0.260751
1.1	713	0.245462
1.2	713	0.229858
1.3	713	0.213909
1.4	713	0.197578
1.5	713	0.180833
1.6	713	0.163642
1.7	713	0.145978
1.8	713	0.127821
1.9	713	0.109162
2	713	0.090006
		
-3	723	0.83718
-2.9	723	0.833894
-2.8	723	0.825606
-2.7	723	0.814018
-2.6	723	0.800288
-2.5	723	0.785215
-2.4	723	0.769363
-2.3	723	0.753134
-2.2	723	0.736816
-2.1	723	0.720611
-2	723	0.704656
-1.9	723	0.68904
-1.8	723	0.673806
-1.7	723	0.658968
-1.6	723	0.64451
-1.5	723	0.630399
-1.4	723	0.616588
-1.3	723	0.603019
-1.2	723	0.589633
-1.1	723	0.576367
-1	723	0.563162
-0.9	723	0.54996
-0.8	723	0.536713
-0.7	723	0.523375
-0.6	723	0.509907
-0.5	723	0.496277
-0.4	723	0.482457
-0.3	723	0.468424
-0.2	723	0.454158
-0.1	723	0.439643
0	723	0.424861
0.1	723	0.409799
0.2	723	0.394439
0.3	723	0.378766
0.4	723	0.362761
0.5	723	0.346405
0.6	723	0.329674
0.7	723	0.312544
0.8	723	0.294992
0.9	723	0.276992
1	723	0.25852
1.1	723	0.239553
1.2	723	0.220078
1.3	723	0.200085
1.4	723	0.179579
1.5	723	0.158577
1.6	723	0.137117
1.7	723	0.115257
1.8	723	0.093085
1.9	723	0.070715
2	723	0.048293
		
-3	733	0.863231
-2.9	733	0.860112
-2.8	733	0.852262
-2.7	733	0.841296
-2.6	733	0.8283
-2.5	733	0.81402
-2.4	733	0.798976
-2.3	733	0.783537
-2.2	733	0.767962
-2.1	733	0.752433
-2	733	0.73707
-1.9	733	0.721946
-1.8	733	0.707096
-1.7	733	0.692525
-1.6	733	0.678213
-1.5	733	0.664123
-1.4	733	0.650207
-1.3	733	0.636405
-1.2	733	0.622657
-1.1	733	0.6089
-1	733	0.595073
-0.9	733	0.581118
-0.8	733	0.566981
-0.7	733	0.552616
-0.6	733	0.537977
-0.5	733	0.523027
-0.4	733	0.50773
-0.3	733	0.492054
-0.2	733	0.475972
-0.1	733	0.459456
0	733	0.44248
0.1	733	0.425019
0.2	733	0.407052
0.3	733	0.388555
0.4	733	0.369508
0.5	733	0.349894
0.6	733	0.3297
0.7	733	0.308921
0.8	733	0.287561
0.9	733	0.265636
1	733	0.243178
1.1	733	0.220238
1.2	733	0.196891
1.3	733	0.173238
1.4	733	0.149408
1.5	733	0.125562
1.6	733	0.101888
1.7	733	0.078601
1.8	733	0.055942
1.9	733	0.034163
2	733	0.013525
		
-3	743	0.885858
-2.9	743	0.882926
-2.8	743	0.875562
-2.7	743	0.865276
-2.6	743	0.853075
-2.5	743	0.839647
-2.4	743	0.825467
-2.3	743	0.810867
-2.2	743	0.796078
-2.1	743	0.781259
-2	743	0.766511
-1.9	743	0.751891
-1.8	743	0.737423
-1.7	743	0.7231
-1.6	743	0.708896
-1.5	743	0.694767
-1.4	743	0.680658
-1.3	743	0.666507
-1.2	743	0.652246
-1.1	743	0.63781
-1	743	0.623131
-0.9	743	0.608146
-0.8	743	0.592796
-0.7	743	0.577026
-0.6	743	0.560786
-0.5	743	0.544028
-0.4	743	0.526713
-0.3	743	0.508804
-0.2	743	0.49027
-0.1	743	0.471085
0	743	0.45123
0.1	743	0.430692
0.2	743	0.40947
0.3	743	0.387574
0.4	743	0.365027
0.5	743	0.341872
0.6	743	0.318171
0.7	743	0.29401
0.8	743	0.269501
0.9	743	0.244785
1	743	0.22003
1.1	743	0.195431
1.2	743	0.171209
1.3	743	0.147602
1.4	743	0.124859
1.5	743	0.10323
1.6	743	0.082957
1.7	743	0.064259
1.8	743	0.047324
1.9	743	0.032299
2	743	0.019279
		
-3	753	0.905122
-2.9	753	0.902389
-2.8	753	0.895531
-2.7	753	0.885942
-2.6	753	0.874547
-2.5	753	0.86197
-2.4	753	0.84864
-2.3	753	0.834852
-2.2	753	0.820806
-2.1	753	0.806636
-2	753	0.792424
-1.9	753	0.778208
-1.8	753	0.763997
-1.7	753	0.749772
-1.6	753	0.735496
-1.5	753	0.721116
-1.4	753	0.706566
-1.3	753	0.691778
-1.2	753	0.676679
-1.1	753	0.661194
-1	753	0.645253
-0.9	753	0.628789
-0.8	753	0.61174
-0.7	753	0.594052
-0.6	753	0.57568
-0.5	753	0.556587
-0.4	753	0.536747
-0.3	753	0.516151
-0.2	753	0.494801
-0.1	753	0.472717
0	753	0.449941
0.1	753	0.426536
0.2	753	0.402591
0.3	753	0.378219
0.4	753	0.353563
0.5	753	0.328791
0.6	753	0.304099
0.7	753	0.279699
0.8	753	0.255824
0.9	753	0.232709
1	753	0.210589
1.1	753	0.189687
1.2	753	0.170202
1.3	753	0.152302
1.4	753	0.136112
1.5	753	0.121713
1.6	753	0.109137
1.7	753	0.098366
1.8	753	0.089338
1.9	753	0.081951
2	753	0.076072
		
-3	763	0.920735
-2.9	763	0.918198
-2.8	763	0.911827
-2.7	763	0.902896
-2.6	763	0.892243
-2.5	763	0.880432
-2.4	763	0.867841
-2.3	763	0.854729
-2.2	763	0.841265
-2.1	763	0.827557
-2	763	0.813664
-1.9	763	0.799607
-1.8	763	0.785379
-1.7	763	0.770947
-1.6	763	0.756264
-1.5	763	0.741267
-1.4	763	0.72589
-1.3	763	0.710058
-1.2	763	0.693702
-1.1	763	0.676755
-1	763	0.659157
-0.9	763	0.640861
-0.8	763	0.621834
-0.7	763	0.602057
-0.6	763	0.581533
-0.5	763	0.560287
-0.4	763	0.538367
-0.3	763	0.515847
-0.2	763	0.49283
-0.1	763	0.469445
0	763	0.445846
0.1	763	0.422211
0.2	763	0.398736
0.3	763	0.375632
0.4	763	0.353111
0.5	763	0.331382
0.6	763	0.310642
0.7	763	0.291064
0.8	763	0.272791
0.9	763	0.255928
1	763	0.240542
1.1	763	0.226656
1.2	763	0.214253
1.3	763	0.203277
1.4	763	0.193643
1.5	763	0.18524
1.6	763	0.17794
1.7	763	0.171603
1.8	763	0.166089
1.9	763	0.161257
2	763	0.156976
		
-3	773	0.931949
-2.9	773	0.929584
-2.8	773	0.923627
-2.7	773	0.915233
-2.6	773	0.905162
-2.5	773	0.893917
-2.4	773	0.881833
-2.3	773	0.869131
-2.2	773	0.855954
-2.1	773	0.842388
-2	773	0.828473
-1.9	773	0.81422
-1.8	773	0.799611
-1.7	773	0.784615
-1.6	773	0.769186
-1.5	773	0.753275
-1.4	773	0.736831
-1.3	773	0.719809
-1.2	773	0.702177
-1.1	773	0.683915
-1	773	0.665023
-0.9	773	0.645523
-0.8	773	0.625462
-0.7	773	0.604913
-0.6	773	0.583974
-0.5	773	0.562766
-0.4	773	0.541433
-0.3	773	0.520137
-0.2	773	0.499046
-0.1	773	0.478335
0	773	0.458175
0.1	773	0.438721
0.2	773	0.420112
0.3	773	0.402458
0.4	773	0.385841
0.5	773	0.370309
0.6	773	0.355875
0.7	773	0.342523
0.8	773	0.330208
0.9	773	0.318863
1	773	0.308403
1.1	773	0.298732
1.2	773	0.289748
1.3	773	0.281349
1.4	773	0.273434
1.5	773	0.265913
1.6	773	0.258702
1.7	773	0.251727
1.8	773	0.244929
1.9	773	0.238257
2	773	0.231672
