Variables = LogStrainRate, Temperature, Xi
Zone I = 51 J = 21 F = POINT	
-3	573	-0.297457
-2.9	573	-0.3564
-2.8	573	-0.412881
-2.7	573	-0.465148
-2.6	573	-0.510923
-2.5	573	-0.547346
-2.4	573	-0.571023
-2.3	573	-0.578274
-2.2	573	-0.565679
-2.1	573	-0.530949
-2	573	-0.47396
-1.9	573	-0.397569
-1.8	573	-0.307727
-1.7	573	-0.212655
-1.6	573	-0.121245
-1.5	573	-0.04124
-1.4	573	0.022155
-1.3	573	0.066788
-1.2	573	0.093172
-1.1	573	0.10356
-1	573	0.100939
-0.9	573	0.088284
-0.8	573	0.068124
-0.7	573	0.042391
-0.6	573	0.012415
-0.5	573	-0.021009
-0.4	573	-0.057548
-0.3	573	-0.097267
-0.2	573	-0.14062
-0.1	573	-0.188467
0	573	-0.242178
0.1	573	-0.30384
0.2	573	-0.376662
0.3	573	-0.46579
0.4	573	-0.580068
0.5	573	-0.736353
0.6	573	-0.972422
0.7	573	-1.402427
0.8	573	-2.918414
0.9	573	-1.41593
1	573	-0.436324
1.1	573	0.320963
1.2	573	1.228068
1.3	573	4.364403
1.4	573	1.503711
1.5	573	1.013491
1.6	573	0.753615
1.7	573	0.582602
1.8	573	0.457011
1.9	573	0.358227
2	573	0.276792
		
-3	583	-0.212584
-2.9	583	-0.263784
-2.8	583	-0.311449
-2.7	583	-0.354038
-2.6	583	-0.38975
-2.5	583	-0.416593
-2.4	583	-0.432533
-2.3	583	-0.435749
-2.2	583	-0.42499
-2.1	583	-0.399985
-2	583	-0.36179
-1.9	583	-0.312932
-1.8	583	-0.257232
-1.7	583	-0.199306
-1.6	583	-0.143843
-1.5	583	-0.094889
-1.4	583	-0.05532
-1.3	583	-0.026654
-1.2	583	-0.00917
-1.1	583	-0.002238
-1	583	-0.004717
-0.9	583	-0.015301
-0.8	583	-0.032766
-0.7	583	-0.056126
-0.6	583	-0.084699
-0.5	583	-0.11815
-0.4	583	-0.1565
-0.3	583	-0.200168
-0.2	583	-0.250036
-0.1	583	-0.307597
0	583	-0.375233
0.1	583	-0.456767
0.2	583	-0.558599
0.3	583	-0.692287
0.4	583	-0.881412
0.5	583	-1.185032
0.6	583	-1.83296
0.7	583	-2.61922
0.8	583	-0.979317
0.9	583	-0.165122
1	583	0.60771
1.1	583	1.815467
1.2	583	2.020514
1.3	583	1.14216
1.4	583	0.78515
1.5	583	0.570755
1.6	583	0.420963
1.7	583	0.307
1.8	583	0.215397
1.9	583	0.138932
2	583	0.07337
		
-3	593	-0.138067
-2.9	593	-0.184761
-2.8	593	-0.227665
-2.7	593	-0.265522
-2.6	593	-0.296978
-2.5	593	-0.320673
-2.4	593	-0.335375
-2.3	593	-0.340171
-2.2	593	-0.334672
-2.1	593	-0.319208
-2	593	-0.294946
-1.9	593	-0.263877
-1.8	593	-0.228641
-1.7	593	-0.192218
-1.6	593	-0.157552
-1.5	593	-0.127189
-1.4	593	-0.103031
-1.3	593	-0.086241
-1.2	593	-0.077289
-1.1	593	-0.076107
-1	593	-0.082279
-0.9	593	-0.095231
-0.8	593	-0.114382
-0.7	593	-0.139254
-0.6	593	-0.169544
-0.5	593	-0.205185
-0.4	593	-0.246383
-0.3	593	-0.293687
-0.2	593	-0.348087
-0.1	593	-0.411192
0	593	-0.485557
0.1	593	-0.575324
0.2	593	-0.687543
0.3	593	-0.835259
0.4	593	-1.046019
0.5	593	-1.393096
0.6	593	-2.212694
0.7	593	-2.211118
0.8	593	-0.942368
0.9	593	-0.167972
1	593	0.62914
1.1	593	2.132063
1.2	593	1.581441
1.3	593	0.886522
1.4	593	0.565006
1.5	593	0.363163
1.6	593	0.21845
1.7	593	0.106308
1.8	593	0.014802
1.9	593	-0.062668
2	593	-0.130089
		
-3	603	-0.071465
-2.9	603	-0.115744
-2.8	603	-0.156351
-2.7	603	-0.192282
-2.6	603	-0.222522
-2.5	603	-0.246127
-2.4	603	-0.262333
-2.3	603	-0.270682
-2.2	603	-0.271142
-2.1	603	-0.264202
-2	603	-0.250904
-1.9	603	-0.232793
-1.8	603	-0.211784
-1.7	603	-0.18996
-1.6	603	-0.169347
-1.5	603	-0.151713
-1.4	603	-0.138421
-1.3	603	-0.130374
-1.2	603	-0.128028
-1.1	603	-0.131472
-1	603	-0.140522
-0.9	603	-0.154829
-0.8	603	-0.173968
-0.7	603	-0.197497
-0.6	603	-0.225006
-0.5	603	-0.256133
-0.4	603	-0.290575
-0.3	603	-0.328078
-0.2	603	-0.36843
-0.1	603	-0.411438
0	603	-0.456904
0.1	603	-0.504591
0.2	603	-0.554164
0.3	603	-0.605121
0.4	603	-0.656664
0.5	603	-0.707525
0.6	603	-0.755692
0.7	603	-0.798043
0.8	603	-0.829903
0.9	603	-0.844689
1	603	-0.834033
1.1	603	-0.789012
1.2	603	-0.703002
1.3	603	-0.575534
1.4	603	-0.415064
1.5	603	-0.23842
1.6	603	-0.066687
1.7	603	0.080671
1.8	603	0.191028
1.9	603	0.26088
2	603	0.2944
		
-3	613	-0.011545
-2.9	613	-0.054856
-2.8	613	-0.094782
-2.7	613	-0.130514
-2.6	613	-0.161271
-2.5	613	-0.186371
-2.4	613	-0.205307
-2.3	613	-0.217832
-2.2	613	-0.224035
-2.1	613	-0.224377
-2	613	-0.219702
-1.9	613	-0.211178
-1.8	613	-0.200197
-1.7	613	-0.188243
-1.6	613	-0.176738
-1.5	613	-0.166914
-1.4	613	-0.15972
-1.3	613	-0.155771
-1.2	613	-0.155348
-1.1	613	-0.158433
-1	613	-0.164762
-0.9	613	-0.173883
-0.8	613	-0.185211
-0.7	613	-0.198074
-0.6	613	-0.211741
-0.5	613	-0.225455
-0.4	613	-0.238447
-0.3	613	-0.249958
-0.2	613	-0.25926
-0.1	613	-0.265691
0	613	-0.268689
0.1	613	-0.267836
0.2	613	-0.262906
0.3	613	-0.253906
0.4	613	-0.241098
0.5	613	-0.225004
0.6	613	-0.206378
0.7	613	-0.186145
0.8	613	-0.165322
0.9	613	-0.144922
1	613	-0.125863
1.1	613	-0.108902
1.2	613	-0.094584
1.3	613	-0.083238
1.4	613	-0.074985
1.5	613	-0.069774
1.6	613	-0.067426
1.7	613	-0.067676
1.8	613	-0.070217
1.9	613	-0.074733
2	613	-0.080917
		
-3	623	0.042311
-2.9	623	-0.000994
-2.8	623	-0.041229
-2.7	623	-0.077708
-2.6	623	-0.109784
-2.5	623	-0.136903
-2.4	623	-0.15866
-2.3	623	-0.174855
-2.2	623	-0.185542
-2.1	623	-0.191048
-2	623	-0.191965
-1.9	623	-0.189111
-1.8	623	-0.183455
-1.7	623	-0.17602
-1.6	623	-0.167786
-1.5	623	-0.159598
-1.4	623	-0.152102
-1.3	623	-0.145714
-1.2	623	-0.140614
-1.1	623	-0.136779
-1	623	-0.134019
-0.9	623	-0.132037
-0.8	623	-0.130482
-0.7	623	-0.128998
-0.6	623	-0.127266
-0.5	623	-0.125037
-0.4	623	-0.122154
-0.3	623	-0.118557
-0.2	623	-0.114288
-0.1	623	-0.109476
0	623	-0.10432
0.1	623	-0.099063
0.2	623	-0.09397
0.3	623	-0.089299
0.4	623	-0.085285
0.5	623	-0.082117
0.6	623	-0.079936
0.7	623	-0.07883
0.8	623	-0.078832
0.9	623	-0.079933
1	623	-0.082086
1.1	623	-0.085219
1.2	623	-0.089241
1.3	623	-0.094055
1.4	623	-0.09956
1.5	623	-0.105663
1.6	623	-0.112275
1.7	623	-0.119324
1.8	623	-0.126749
1.9	623	-0.134504
2	623	-0.142561
		
-3	633	0.090957
-2.9	633	0.047319
-2.8	633	0.006574
-2.7	633	-0.03063
-2.6	633	-0.063673
-2.5	633	-0.092011
-2.4	633	-0.115216
-2.3	633	-0.133026
-2.2	633	-0.145379
-2.1	633	-0.152437
-2	633	-0.154585
-1.9	633	-0.15241
-1.8	633	-0.14665
-1.7	633	-0.138134
-1.6	633	-0.127712
-1.5	633	-0.116189
-1.4	633	-0.104271
-1.3	633	-0.092537
-1.2	633	-0.081423
-1.1	633	-0.071233
-1	633	-0.062154
-0.9	633	-0.054288
-0.8	633	-0.047671
-0.7	633	-0.042301
-0.6	633	-0.038151
-0.5	633	-0.035183
-0.4	633	-0.033353
-0.3	633	-0.032612
-0.2	633	-0.032908
-0.1	633	-0.034182
0	633	-0.036371
0.1	633	-0.039408
0.2	633	-0.043217
0.3	633	-0.047721
0.4	633	-0.052839
0.5	633	-0.058492
0.6	633	-0.0646
0.7	633	-0.071089
0.8	633	-0.077891
0.9	633	-0.084942
1	633	-0.092188
1.1	633	-0.099583
1.2	633	-0.107089
1.3	633	-0.114679
1.4	633	-0.122333
1.5	633	-0.130041
1.6	633	-0.137806
1.7	633	-0.145635
1.8	633	-0.153552
1.9	633	-0.161587
2	633	-0.169786
		
-3	643	0.136874
-2.9	643	0.093548
-2.8	643	0.053243
-2.7	643	0.016641
-2.6	643	-0.015602
-2.5	643	-0.042904
-2.4	643	-0.064805
-2.3	643	-0.081016
-2.2	643	-0.091466
-2.1	643	-0.09633
-2	643	-0.096041
-1.9	643	-0.091267
-1.8	643	-0.082867
-1.7	643	-0.071822
-1.6	643	-0.059156
-1.5	643	-0.045854
-1.4	643	-0.032792
-1.3	643	-0.020689
-1.2	643	-0.010083
-1.1	643	-0.001328
-1	643	0.005388
-0.9	643	0.010015
-0.8	643	0.012611
-0.7	643	0.013309
-0.6	643	0.012286
-0.5	643	0.009745
-0.4	643	0.005892
-0.3	643	0.000932
-0.2	643	-0.004945
-0.1	643	-0.011567
0	643	-0.018779
0.1	643	-0.026446
0.2	643	-0.034453
0.3	643	-0.042702
0.4	643	-0.051109
0.5	643	-0.059607
0.6	643	-0.068144
0.7	643	-0.076676
0.8	643	-0.085171
0.9	643	-0.09361
1	643	-0.101979
1.1	643	-0.110275
1.2	643	-0.118503
1.3	643	-0.126675
1.4	643	-0.134812
1.5	643	-0.142945
1.6	643	-0.151113
1.7	643	-0.159368
1.8	643	-0.167772
1.9	643	-0.176404
2	643	-0.185359
		
-3	653	0.185287
-2.9	653	0.143945
-2.8	653	0.106005
-2.7	653	0.072147
-2.6	653	0.042987
-2.5	653	0.019027
-2.4	653	0.000595
-2.3	653	-0.012203
-2.2	653	-0.019518
-2.1	653	-0.021773
-2	653	-0.019642
-1.9	653	-0.014
-1.8	653	-0.005852
-1.7	653	0.003757
-1.6	653	0.013835
-1.5	653	0.023512
-1.4	653	0.032092
-1.3	653	0.039077
-1.2	653	0.044166
-1.1	653	0.047227
-1	653	0.048269
-0.9	653	0.047401
-0.8	653	0.044799
-0.7	653	0.040674
-0.6	653	0.035251
-0.5	653	0.02875
-0.4	653	0.021377
-0.3	653	0.013321
-0.2	653	0.004743
-0.1	653	-0.004214
0	653	-0.013432
0.1	653	-0.022813
0.2	653	-0.032276
0.3	653	-0.041758
0.4	653	-0.051211
0.5	653	-0.060597
0.6	653	-0.069892
0.7	653	-0.079082
0.8	653	-0.088161
0.9	653	-0.097133
1	653	-0.10601
1.1	653	-0.114813
1.2	653	-0.123572
1.3	653	-0.132326
1.4	653	-0.141127
1.5	653	-0.150037
1.6	653	-0.159133
1.7	653	-0.168512
1.8	653	-0.178291
1.9	653	-0.188613
2	653	-0.199657
		
-3	663	0.242277
-2.9	663	0.204457
-2.8	663	0.170221
-2.7	663	0.140114
-2.6	663	0.114566
-2.5	663	0.093855
-2.4	663	0.078063
-2.3	663	0.067051
-2.2	663	0.060453
-2.1	663	0.057697
-2	663	0.058049
-1.9	663	0.060673
-1.8	663	0.064707
-1.7	663	0.069327
-1.6	663	0.073812
-1.5	663	0.077581
-1.4	663	0.080206
-1.3	663	0.081419
-1.2	663	0.081088
-1.1	663	0.079197
-1	663	0.075811
-0.9	663	0.071055
-0.8	663	0.065088
-0.7	663	0.058081
-0.6	663	0.050209
-0.5	663	0.041637
-0.4	663	0.032516
-0.3	663	0.02298
-0.2	663	0.013148
-0.1	663	0.003117
0	663	-0.007029
0.1	663	-0.017224
0.2	663	-0.027416
0.3	663	-0.037565
0.4	663	-0.047643
0.5	663	-0.057635
0.6	663	-0.067534
0.7	663	-0.077345
0.8	663	-0.087082
0.9	663	-0.096768
1	663	-0.10644
1.1	663	-0.116142
1.2	663	-0.125937
1.3	663	-0.135899
1.4	663	-0.146122
1.5	663	-0.156722
1.6	663	-0.167843
1.7	663	-0.179663
1.8	663	-0.192403
1.9	663	-0.206343
2	663	-0.221837
		
-3	673	0.309171
-2.9	673	0.274657
-2.8	673	0.243389
-2.7	673	0.21574
-2.6	673	0.19197
-2.5	673	0.172196
-2.4	673	0.156373
-2.3	673	0.144286
-2.2	673	0.135563
-2.1	673	0.129695
-2	673	0.126084
-1.9	673	0.124086
-1.8	673	0.12306
-1.7	673	0.12242
-1.6	673	0.121661
-1.5	673	0.120383
-1.4	673	0.1183
-1.3	673	0.115228
-1.2	673	0.111082
-1.1	673	0.105849
-1	673	0.099575
-0.9	673	0.092345
-0.8	673	0.084268
-0.7	673	0.075463
-0.6	673	0.066052
-0.5	673	0.056153
-0.4	673	0.045875
-0.3	673	0.035314
-0.2	673	0.024555
-0.1	673	0.01367
0	673	0.002716
0.1	673	-0.008261
0.2	673	-0.019228
0.3	673	-0.030164
0.4	673	-0.041059
0.5	673	-0.051915
0.6	673	-0.062748
0.7	673	-0.073582
0.8	673	-0.084459
0.9	673	-0.095433
1	673	-0.106574
1.1	673	-0.117975
1.2	673	-0.129748
1.3	673	-0.142038
1.4	673	-0.155022
1.5	673	-0.168924
1.6	673	-0.184025
1.7	673	-0.200682
1.8	673	-0.219355
1.9	673	-0.240647
2	673	-0.265356
		
-3	683	0.380486
-2.9	683	0.347674
-2.8	683	0.317529
-2.7	683	0.29035
-2.6	683	0.26634
-2.5	683	0.245585
-2.4	683	0.228043
-2.3	683	0.213541
-2.2	683	0.201783
-2.1	683	0.192375
-2	683	0.184856
-1.9	683	0.178731
-1.8	683	0.17351
-1.7	683	0.168738
-1.6	683	0.164024
-1.5	683	0.159049
-1.4	683	0.153577
-1.3	683	0.147451
-1.2	683	0.140585
-1.1	683	0.132949
-1	683	0.124562
-0.9	683	0.115473
-0.8	683	0.105754
-0.7	683	0.095486
-0.6	683	0.084757
-0.5	683	0.073651
-0.4	683	0.06225
-0.3	683	0.050622
-0.2	683	0.038831
-0.1	683	0.026925
0	683	0.014943
0.1	683	0.00291
0.2	683	-0.009161
0.3	683	-0.02127
0.4	683	-0.033433
0.5	683	-0.045679
0.6	683	-0.058055
0.7	683	-0.070623
0.8	683	-0.083472
0.9	683	-0.09671
1	683	-0.11048
1.1	683	-0.124958
1.2	683	-0.14037
1.3	683	-0.156997
1.4	683	-0.175202
1.5	683	-0.195448
1.6	683	-0.218343
1.7	683	-0.244691
1.8	683	-0.275591
1.9	683	-0.312574
2	683	-0.357862
		
-3	693	0.44957
-2.9	693	0.417183
-2.8	693	0.386994
-2.7	693	0.359289
-2.6	693	0.33427
-2.5	693	0.312032
-2.4	693	0.292563
-2.3	693	0.275733
-2.2	693	0.261311
-2.1	693	0.248981
-2	693	0.238365
-1.9	693	0.229059
-1.8	693	0.220656
-1.7	693	0.212775
-1.6	693	0.205083
-1.5	693	0.197303
-1.4	693	0.189226
-1.3	693	0.180702
-1.2	693	0.171643
-1.1	693	0.162007
-1	693	0.151791
-0.9	693	0.141024
-0.8	693	0.129749
-0.7	693	0.118025
-0.6	693	0.105912
-0.5	693	0.093473
-0.4	693	0.080762
-0.3	693	0.067829
-0.2	693	0.054712
-0.1	693	0.041438
0	693	0.02802
0.1	693	0.014458
0.2	693	0.000734
0.3	693	-0.013187
0.4	693	-0.02736
0.5	693	-0.041862
0.6	693	-0.056798
0.7	693	-0.072305
0.8	693	-0.088556
0.9	693	-0.105775
1	693	-0.124244
1.1	693	-0.144324
1.2	693	-0.166481
1.3	693	-0.191322
1.4	693	-0.219652
1.5	693	-0.252562
1.6	693	-0.291574
1.7	693	-0.338882
1.8	693	-0.397792
1.9	693	-0.473576
2	693	-0.575295
		
-3	703	0.51333
-2.9	703	0.481025
-2.8	703	0.4506
-2.7	703	0.422335
-2.6	703	0.396428
-2.5	703	0.372983
-2.4	703	0.352002
-2.3	703	0.333383
-2.2	703	0.316932
-2.1	703	0.302381
-2	703	0.289407
-1.9	703	0.277658
-1.8	703	0.266784
-1.7	703	0.256452
-1.6	703	0.246366
-1.5	703	0.236281
-1.4	703	0.226004
-1.3	703	0.215394
-1.2	703	0.204362
-1.1	703	0.192858
-1	703	0.180867
-0.9	703	0.168398
-0.8	703	0.155478
-0.7	703	0.142141
-0.6	703	0.128428
-0.5	703	0.114376
-0.4	703	0.100014
-0.3	703	0.085367
-0.2	703	0.070442
-0.1	703	0.055234
0	703	0.039721
0.1	703	0.023857
0.2	703	0.007577
0.3	703	-0.009216
0.4	703	-0.026649
0.5	703	-0.044891
0.6	703	-0.064156
0.7	703	-0.084722
0.8	703	-0.106943
0.9	703	-0.131277
1	703	-0.158319
1.1	703	-0.188855
1.2	703	-0.223946
1.3	703	-0.26506
1.4	703	-0.314302
1.5	703	-0.374809
1.6	703	-0.451539
1.7	703	-0.552898
1.8	703	-0.694687
1.9	703	-0.911596
2	703	-1.304282
		
-3	713	0.571575
-2.9	713	0.539557
-2.8	713	0.509171
-2.7	713	0.480684
-2.6	713	0.454287
-2.5	713	0.430083
-2.4	713	0.40808
-2.3	713	0.388191
-2.2	713	0.370248
-2.1	713	0.354014
-2	713	0.339204
-1.9	713	0.325508
-1.8	713	0.312615
-1.7	713	0.300228
-1.6	713	0.288082
-1.5	713	0.275956
-1.4	713	0.263669
-1.3	713	0.25109
-1.2	713	0.238128
-1.1	713	0.224726
-1	713	0.210858
-0.9	713	0.196515
-0.8	713	0.181704
-0.7	713	0.166437
-0.6	713	0.150727
-0.5	713	0.13458
-0.4	713	0.117995
-0.3	713	0.100955
-0.2	713	0.083425
-0.1	713	0.065349
0	713	0.046641
0.1	713	0.027185
0.2	713	0.006827
0.3	713	-0.014637
0.4	713	-0.03747
0.5	713	-0.062007
0.6	713	-0.088684
0.7	713	-0.118062
0.8	713	-0.150878
0.9	713	-0.18812
1	713	-0.231136
1.1	713	-0.281834
1.2	713	-0.343012
1.3	713	-0.419002
1.4	713	-0.516972
1.5	713	-0.649926
1.6	713	-0.844921
1.7	713	-1.172818
1.8	713	-1.948135
1.9	713	-2.055656
2	713	-0.733381
		
-3	723	0.624967
-2.9	723	0.593595
-2.8	723	0.563621
-2.7	723	0.535299
-2.6	723	0.50881
-2.5	723	0.484252
-2.4	723	0.461633
-2.3	723	0.440878
-2.2	723	0.421837
-2.1	723	0.404296
-2	723	0.388001
-1.9	723	0.372673
-1.8	723	0.358031
-1.7	723	0.343808
-1.6	723	0.329763
-1.5	723	0.31569
-1.4	723	0.301422
-1.3	723	0.286827
-1.2	723	0.271813
-1.1	723	0.256312
-1	723	0.24028
-0.9	723	0.223689
-0.8	723	0.206519
-0.7	723	0.18875
-0.6	723	0.170357
-0.5	723	0.151304
-0.4	723	0.131539
-0.3	723	0.110987
-0.2	723	0.089542
-0.1	723	0.067067
0	723	0.043378
0.1	723	0.01824
0.2	723	-0.008652
0.3	723	-0.037686
0.4	723	-0.06936
0.5	723	-0.104321
0.6	723	-0.14342
0.7	723	-0.187797
0.8	723	-0.239027
0.9	723	-0.299356
1	723	-0.372144
1.1	723	-0.462711
1.2	723	-0.580165
1.3	723	-0.741889
1.4	723	-0.987103
1.5	723	-1.436302
1.6	723	-3.138112
1.7	723	-1.388956
1.8	723	-0.439973
1.9	723	0.305327
2	723	1.216205
		
-3	733	0.673988
-2.9	733	0.643601
-2.8	733	0.614375
-2.7	733	0.586549
-2.6	733	0.56029
-2.5	733	0.535689
-2.4	733	0.512755
-2.3	733	0.49142
-2.2	733	0.471544
-2.1	733	0.452934
-2	733	0.435356
-1.9	733	0.418556
-1.8	733	0.402277
-1.7	733	0.386271
-1.6	733	0.370314
-1.5	733	0.354209
-1.4	733	0.337792
-1.3	733	0.320929
-1.2	733	0.303514
-1.1	733	0.285464
-1	733	0.26671
-0.9	733	0.247192
-0.8	733	0.226853
-0.7	733	0.205628
-0.6	733	0.18344
-0.5	733	0.160195
-0.4	733	0.13577
-0.3	733	0.110008
-0.2	733	0.082711
-0.1	733	0.05363
0	733	0.022447
0.1	733	-0.011235
0.2	733	-0.047918
0.3	733	-0.088246
0.4	733	-0.133052
0.5	733	-0.18344
0.6	733	-0.240913
0.7	733	-0.30759
0.8	733	-0.386604
0.9	733	-0.482861
1	733	-0.604642
1.1	733	-0.76746
1.2	733	-1.005265
1.3	733	-1.41589
1.4	733	-2.604
1.5	733	-1.700499
1.6	733	-0.668343
1.7	733	0.073146
1.8	733	0.918013
1.9	733	3.479717
2	733	1.373514
		
-3	743	0.718649
-2.9	743	0.689512
-2.8	743	0.661286
-2.7	743	0.634192
-2.6	743	0.608383
-2.5	743	0.583942
-2.4	743	0.560874
-2.3	743	0.53911
-2.2	743	0.518521
-2.1	743	0.498924
-2	743	0.480099
-1.9	743	0.461808
-1.8	743	0.443807
-1.7	743	0.425861
-1.6	743	0.407751
-1.5	743	0.389282
-1.4	743	0.370284
-1.3	743	0.350611
-1.2	743	0.330138
-1.1	743	0.308755
-1	743	0.286364
-0.9	743	0.262867
-0.8	743	0.238163
-0.7	743	0.212143
-0.6	743	0.184677
-0.5	743	0.155618
-0.4	743	0.124784
-0.3	743	0.091961
-0.2	743	0.056893
-0.1	743	0.019272
0	743	-0.021274
0.1	743	-0.065191
0.2	743	-0.113025
0.3	743	-0.165453
0.4	743	-0.223333
0.5	743	-0.287785
0.6	743	-0.360324
0.7	743	-0.443091
0.8	743	-0.539276
0.9	743	-0.653944
1	743	-0.795799
1.1	743	-0.981497
1.2	743	-1.24853
1.3	743	-1.71045
1.4	743	-3.250654
1.5	743	-1.797923
1.6	743	-0.853068
1.7	743	-0.132863
1.8	743	0.734871
1.9	743	3.89511
2	743	0.932375
		
-3	753	0.75841
-2.9	753	0.730672
-2.8	753	0.703575
-2.7	753	0.67732
-2.6	753	0.652044
-2.5	753	0.627814
-2.4	753	0.604626
-2.3	753	0.582411
-2.2	753	0.561036
-2.1	753	0.540324
-2	753	0.520062
-1.9	753	0.500018
-1.8	753	0.479954
-1.7	753	0.459638
-1.6	753	0.438851
-1.5	753	0.417395
-1.4	753	0.395093
-1.3	753	0.371786
-1.2	753	0.347338
-1.1	753	0.321625
-1	753	0.294537
-0.9	753	0.26597
-0.8	753	0.235826
-0.7	753	0.204008
-0.6	753	0.170425
-0.5	753	0.134987
-0.4	753	0.097613
-0.3	753	0.058235
-0.2	753	0.016806
-0.1	753	-0.026686
0	753	-0.072204
0.1	753	-0.119641
0.2	753	-0.168789
0.3	753	-0.219312
0.4	753	-0.270692
0.5	753	-0.322177
0.6	753	-0.372713
0.7	753	-0.420853
0.8	753	-0.464679
0.9	753	-0.501725
1	753	-0.528973
1.1	753	-0.542976
1.2	753	-0.540215
1.3	753	-0.517754
1.4	753	-0.474144
1.5	753	-0.41034
1.6	753	-0.33021
1.7	753	-0.24028
1.8	753	-0.148634
1.9	753	-0.063277
2	753	0.009442
		
-3	763	0.792035
-2.9	763	0.765673
-2.8	763	0.739655
-2.7	763	0.714154
-2.6	763	0.689286
-2.5	763	0.665101
-2.4	763	0.641582
-2.3	763	0.618648
-2.2	763	0.596166
-2.1	763	0.573958
-2	763	0.551813
-1.9	763	0.529508
-1.8	763	0.506813
-1.7	763	0.483508
-1.6	763	0.45939
-1.5	763	0.434278
-1.4	763	0.408022
-1.3	763	0.3805
-1.2	763	0.351627
-1.1	763	0.32135
-1	763	0.289656
-0.9	763	0.256574
-0.8	763	0.222178
-0.7	763	0.186599
-0.6	763	0.150032
-0.5	763	0.112744
-0.4	763	0.075092
-0.3	763	0.037529
-0.2	763	0.000616
-0.1	763	-0.034978
0	763	-0.068475
0.1	763	-0.09901
0.2	763	-0.125669
0.3	763	-0.147538
0.4	763	-0.16379
0.5	763	-0.173776
0.6	763	-0.177135
0.7	763	-0.173879
0.8	763	-0.164459
0.9	763	-0.149765
1	763	-0.131063
1.1	763	-0.109872
1.2	763	-0.087798
1.3	763	-0.066353
1.4	763	-0.046811
1.5	763	-0.030113
1.6	763	-0.016827
1.7	763	-0.007177
1.8	763	-0.001102
1.9	763	0.001664
2	763	0.001513
		
-3	773	0.817314
-2.9	773	0.792065
-2.8	773	0.766825
-2.7	773	0.741742
-2.6	773	0.716909
-2.5	773	0.69236
-2.4	773	0.668068
-2.3	773	0.643954
-2.2	773	0.619891
-2.1	773	0.595718
-2	773	0.571255
-1.9	773	0.546318
-1.8	773	0.520733
-1.7	773	0.49435
-1.6	773	0.467055
-1.5	773	0.438782
-1.4	773	0.409518
-1.3	773	0.379312
-1.2	773	0.348281
-1.1	773	0.316613
-1	773	0.284569
-0.9	773	0.25248
-0.8	773	0.220751
-0.7	773	0.189841
-0.6	773	0.160258
-0.5	773	0.132531
-0.4	773	0.107186
-0.3	773	0.084701
-0.2	773	0.065473
-0.1	773	0.049776
0	773	0.037723
0.1	773	0.029242
0.2	773	0.024075
0.3	773	0.021791
0.4	773	0.02182
0.5	773	0.023505
0.6	773	0.026164
0.7	773	0.029143
0.8	773	0.031871
0.9	773	0.033888
1	773	0.034863
1.1	773	0.034592
1.2	773	0.032987
1.3	773	0.030054
1.4	773	0.025869
1.5	773	0.020556
1.6	773	0.014265
1.7	773	0.007158
1.8	773	-0.000603
1.9	773	-0.008868
2	773	-0.017497